         110
Energy of minimum      1=    -154.3473295     first found at step       97 after                67437 function calls
HH31        1.4181108437        9.1648693595        2.0449277283
CH3         2.1538210407        9.6330605084        2.6970948791
HH32        2.0371578747        9.2531042510        3.7109726836
HH33        2.0084734669       10.7122579146        2.6926960713
C           3.5420941775        9.3141900873        2.1940062793
O           4.3369986723        8.7142927725        2.9158218568
N           3.8307570608        9.7142439776        0.9576446931
H           3.1196221665       10.2185260191        0.4475113390
CA          5.1204873096        9.5204982132        0.2801952372
HA          5.9086057278        9.4814235689        1.0342357973
CB          5.1201030730        8.1743409462       -0.4696642655
HB2         4.8931871179        7.3777628730        0.2407586679
HB3         6.1285422258        7.9820141277       -0.8388998031
CG          4.1503189079        8.0778250166       -1.6373495602
CD1         2.8193153814        7.6676157043       -1.4193927232
HD1         2.4868343055        7.4204225293       -0.4185926364
CE1         1.9181215933        7.5781452815       -2.4989390304
HE1         0.8969841420        7.2652734928       -2.3283651903
CZ          2.3492174291        7.8963226084       -3.8054006244
OH          1.4859668265        7.8124744702       -4.8523801554
HH          0.6097495584        7.5246051599       -4.5650581512
CE2         3.6835859823        8.3000781708       -4.0250191438
HE2         4.0090342107        8.5393276776       -5.0281607922
CD2         4.5818233989        8.3886038372       -2.9432423688
HD2         5.6052804557        8.6960765057       -3.1192721034
C           5.4541619685       10.6919142162       -0.6634223710
O           4.5829682625       11.4964613659       -1.0101020504
N           6.7196259379       10.7884489904       -1.0804594854
H           7.3824364100       10.0948148460       -0.7632282961
CA          7.2425305092       11.8309790701       -1.9736662951
HA          6.4371347274       12.1827299626       -2.6210153953
CB          7.7397601028       13.0287822448       -1.1395720312
HB2         8.1800572013       13.7694958743       -1.8089522868
HB3         6.8751602836       13.5033790480       -0.6731000138
CG          8.7509767610       12.6912746566       -0.0534113141
CD1         8.3199623051       12.5050157282        1.2764376176
HD1         7.2713629254       12.6112126322        1.5250993637
CE1         9.2485907363       12.1809996794        2.2855581611
HE1         8.9150991714       12.0387778767        3.3043157171
CZ         10.6155053348       12.0354659885        1.9638236919
OH         11.5189447157       11.7130183925        2.9263873598
HH         11.0959639112       11.6110182741        3.7884704514
CE2        11.0463299295       12.2195940241        0.6338267524
HE2        12.0894133287       12.0859159119        0.3909619153
CD2        10.1181798854       12.5580187540       -0.3692004024
HD2        10.4574932277       12.7016389769       -1.3853772231
C           8.3587705663       11.2932662511       -2.8866919275
O           9.0592187938       10.3381453205       -2.5376472149
N           8.5464137567       11.9239384592       -4.0497634285
H           7.9309172857       12.6922100442       -4.2762159110
CA          9.7123005411       11.7182546971       -4.9195282263
HA2         9.4606147690       11.9969235647       -5.9428784037
HA3         9.9928548616       10.6641259318       -4.9195234932
C          10.9177806914       12.5567319501       -4.4748441659
O          10.7500837377       13.6420467167       -3.9108469363
N          12.1375175379       12.0697388847       -4.7205898259
H          12.2124907277       11.1737485228       -5.1810418887
CA         13.3789044616       12.7511014375       -4.3277987628
HA2        14.2368915661       12.1877458205       -4.6948481624
HA3        13.4064102520       13.7393532759       -4.7887271081
C          13.5187970630       12.8991359858       -2.8064336801
O          13.4168234715       11.9138950343       -2.0708256695
N          13.7406208959       14.1290676157       -2.3350091475
H          13.7800788024       14.8858860450       -3.0029034930
CA         13.8119400452       14.4944130701       -0.9137478835
HA         13.5870948222       13.6177544437       -0.3074734994
CB         15.2431609817       14.9321592907       -0.5682627000
HB2        15.9298179781       14.1235723114       -0.8242222575
HB3        15.5089403898       15.7948039896       -1.1816277735
CG         15.4391923771       15.2809820043        0.8959260773
CD1        15.4834010867       16.6295710573        1.3037017269
HD1        15.4028248144       17.4229525999        0.5703498952
CE1        15.6241889196       16.9501857262        2.6681321395
HE1        15.6576248331       17.9826718297        2.9875419183
CZ         15.7207830573       15.9218241872        3.6298895571
OH         15.8613415864       16.2359615597        4.9451571664
HH         15.9175174943       15.4427052902        5.4932708326
CE2        15.6790763335       14.5708928607        3.2202620666
HE2        15.7544703843       13.7813074374        3.9554201611
CD2        15.5371094480       14.2532987903        1.8548989396
HD2        15.5017361658       13.2159524929        1.5438622907
C          12.7780478681       15.5767868536       -0.5527105154
O          12.4579382847       16.4402147087       -1.3754019439
N          12.2697701049       15.5425797282        0.6825975658
H          12.6085304044       14.8362153546        1.3207714516
CA         11.2885434235       16.4909982597        1.2212072732
HA         11.4187040847       17.4558541671        0.7285760323
CB          9.8737424914       15.9731884912        0.9152741357
HB2         9.7353720989       15.0220088419        1.4283259331
HB3         9.7894382712       15.7824408174       -0.1557041561
CG          8.7545379977       16.9172665158        1.3130818292
CD1         7.9494540313       16.6303589513        2.4337021929
HD1         8.1213728988       15.7294409728        3.0099220703
CE1         6.9202293121       17.5160076585        2.8089184123
HE1         6.2999043451       17.3018826996        3.6683336193
CZ          6.6924636021       18.6922500662        2.0629458296
OH          5.6983596680       19.5444050607        2.4288737976
HH          5.6501502406       20.3057003113        1.8362328199
CE2         7.4982236378       18.9781623399        0.9389141271
HE2         7.3240709885       19.8778669716        0.3645058141
CD2         8.5265945181       18.0900214518        0.5660128696
HD2         9.1414243384       18.3092618056       -0.2989007007
C          11.4882078165       16.7007376860        2.7342323373
O          11.9377984015       15.7926737857        3.4404904242
N          11.1426210284       17.8924520158        3.2377055100
H          10.7546316387       18.5744478330        2.6001964999
CH3        11.2572721121       18.2689170169        4.6467711171
HH31       10.6308747854       17.6182482628        5.2602239552
HH32       10.9343046109       19.3022963504        4.7858548477
HH33       12.2938398559       18.1755000517        4.9771158904
         110
Energy of minimum      2=    -154.2868205     first found at step       96 after                66830 function calls
HH31        1.4213763133        9.1809142909        2.2351999631
CH3         2.1528036542        9.6850174846        2.8650319513
HH32        2.0375856730        9.3529297958        3.8957442862
HH33        1.9996065362       10.7616854835        2.8090961314
C           3.5440191259        9.3527448258        2.3790344844
O           4.3423256500        8.7937501571        3.1293665956
N           3.8313760915        9.6955728996        1.1252985923
H           3.1172544055       10.1697568759        0.5910436496
CA          5.1233712657        9.4792672648        0.4590847187
HA          5.9107707783        9.4819697607        1.2148821604
CB          5.1338016753        8.0989442550       -0.2257718740
HB2         4.9117921577        7.3354710555        0.5215891926
HB3         6.1440987594        7.8966735844       -0.5844644831
CG          4.1662668860        7.9397628617       -1.3884511619
CD1         2.8380181097        7.5306056451       -1.1524581748
HD1         2.5060552781        7.3289304222       -0.1413317122
CE1         1.9389061757        7.3831651922       -2.2273695265
HE1         0.9198644990        7.0712580534       -2.0430497517
CZ          2.3693596350        7.6419061526       -3.5470987911
OH          1.5081061099        7.5019126174       -4.5897121350
HH          0.6336468692        7.2216071293       -4.2898302122
CE2         3.7010227322        8.0445629436       -3.7844408479
HE2         4.0260152698        8.2381399117       -4.7975339686
CD2         4.5971823102        8.1911441173       -2.7072591751
HD2         5.6185909453        8.4974152358       -2.8967675470
C           5.4497052132       10.6068186610       -0.5389647891
O           4.5731131809       11.3875216679       -0.9243913405
N           6.7149615111       10.6926651345       -0.9589562440
H           7.3823998616       10.0197936698       -0.6084548986
CA          7.2313863321       11.6953052030       -1.9003041782
HA          6.4243410992       12.0097431092       -2.5645765277
CB          7.7184609003       12.9351849279       -1.1237110413
HB2         8.1546113366       13.6462810476       -1.8270607148
HB3         6.8495938185       13.4252125370       -0.6817691114
CG          8.7301158712       12.6574438134       -0.0211575479
CD1         8.2983386149       12.5343098250        1.3157700183
HD1         7.2487364035       12.6460240441        1.5576900623
CE1         9.2275221617       12.2664410399        2.3407240271
HE1         8.8934555861       12.1725862262        3.3648847889
CZ         10.5958057992       12.1139360720        2.0281517516
OH         11.4998565621       11.8453662586        3.0065431384
HH         11.0763218634       11.7834460142        3.8721597530
CE2        11.0274195203       12.2349414322        0.6911830319
HE2        12.0717121119       12.0963255601        0.4564070303
CD2        10.0986006366       12.5173974444       -0.3284018410
HD2        10.4385715388       12.6130407978       -1.3499820483
C           8.3529345557       11.1231506067       -2.7854613467
O           9.0592521803       10.1902739647       -2.3910324717
N           8.5384127378       11.7000224953       -3.9764739615
H           7.9180872389       12.4525762535       -4.2395619638
CA          9.7072522191       11.4619275349       -4.8339108365
HA2         9.4555557488       11.6908245137       -5.8695279907
HA3         9.9948403270       10.4108657983       -4.7843038006
C          10.9063658016       12.3283292690       -4.4271054794
O          10.7305728438       13.4372816005       -3.9138185780
N          12.1296873996       11.8389919404       -4.6491679499
H          12.2113207855       10.9232750496       -5.0677760966
CA         13.3659456997       12.5464158216       -4.2875472277
HA2        14.2281296802       11.9730866951       -4.6283824191
HA3        13.3866175958       13.5127612574       -4.7931205361
C          13.5041968649       12.7648589152       -2.7745219322
O          13.4060951023       11.8140886323       -1.9943685362
N          13.7206933129       14.0160923544       -2.3601413234
H          13.7571887062       14.7416266791       -3.0620683905
CA         13.7919565374       14.4465926531       -0.9572078018
HA         13.5643930314       13.5994036531       -0.3113544216
CB         15.2240625708       14.8961823090       -0.6321235408
HB2        15.9099614625       14.0798397872       -0.8644899099
HB3        15.4870119387       15.7380700635       -1.2748428376
CG         15.4279542462       15.2917948674        0.8189541065
CD1        15.4776775500       16.6526880412        1.1832599969
HD1        15.3909401912       17.4217794906        0.4250468162
CE1        15.6349990109       17.0182198045        2.5348547006
HE1        15.6736779259       18.0625659135        2.8130268236
CZ         15.7424478952       16.0195462494        3.5274971321
OH         15.9019090945       16.3643356091        4.8329369819
HH         15.9250498867       17.3233584064        4.9446023039
CE2        15.6931449882       14.6573823498        3.1609937504
HE2        15.7771942380       13.8971344300        3.9253529738
CD2        15.5350131073       14.2950481664        1.8089017615
HD2        15.4959548274       13.2482019008        1.5322835887
C          12.7601564105       15.5469628712       -0.6488598161
O          12.4444487527       16.3719649634       -1.5117412320
N          12.2455436630       15.5698478075        0.5841115810
H          12.5815185424       14.8949012075        1.2568615084
CA         11.2491789633       16.5329387643        1.0668344773
HA         11.3741228600       17.4740296534        0.5289664467
CB          9.8433965281       15.9844794908        0.7721051347
HB2         9.7095004052       15.0593388492        1.3317717207
HB3         9.7735953227       15.7381445410       -0.2885229822
CG          8.7088492558       16.9343366069        1.1079092584
CD1         7.8890068089       16.6917324137        2.2282970321
HD1         8.0605504153       15.8205964535        2.8487131150
CE1         6.8454314398       17.5831437465        2.5457586255
HE1         6.2137494712       17.4029680854        3.4046868818
CZ          6.6179912660       18.7207378154        1.7419939187
OH          5.6099916113       19.5786258722        2.0522746151
HH          5.5636692032       20.3107799831        1.4238476363
CE2         7.4385182488       18.9621453748        0.6182050453
HE2         7.2646108050       19.8320657116       -0.0004545921
CD2         8.4812261553       18.0683408702        0.3031469297
HD2         9.1072957619       18.2532085082       -0.5617373686
C          11.4291779238       16.8195215864        2.5697287635
O          11.8975621196       15.9593233827        3.3220995672
N          11.0458759149       18.0234921657        3.0131973983
H          10.6447492557       18.6629421968        2.3406333127
CH3        11.1311368894       18.4678189231        4.4044610403
HH31       10.5177919337       17.8264107554        5.0404669087
HH32       10.7740374027       19.4956225507        4.4918943334
HH33       12.1657434032       18.4229522167        4.7503848180
         110
Energy of minimum      3=    -152.9751113     first found at step        3 after                 2656 function calls
HH31        2.0928517562        0.9968161828        0.5596571358
CH3         2.2430568974        1.9235679427        0.0078051871
HH32        1.4304370503        2.6146771060        0.2266044505
HH33        2.2633589006        1.7131566615       -1.0604567910
C           3.5552309773        2.5496301742        0.4181119565
O           4.2625498714        2.0020443227        1.2622898855
N           3.8781608002        3.6956678272       -0.1779713817
H           3.2251482331        4.0769015265       -0.8481065756
CA          5.0970036676        4.4729918450        0.0826081151
HA          5.4322898465        4.2793202219        1.1029556887
CB          6.2040751106        4.0177004946       -0.8847396337
HB2         6.3954170520        2.9552882805       -0.7256380790
HB3         5.8468771982        4.1337814410       -1.9095405196
CG          7.5160872349        4.7677691515       -0.7319674534
CD1         7.8631569168        5.7817783463       -1.6483004755
HD1         7.2048299542        6.0132152941       -2.4771372141
CE1         9.0632225423        6.5021957319       -1.4871669276
HE1         9.3280333387        7.2787551932       -2.1916894154
CZ          9.9214618610        6.2086026821       -0.4050065887
OH         11.0849484641        6.8940602022       -0.2475094760
HH         11.2104441307        7.5443829783       -0.9500743606
CE2         9.5735641041        5.1927046365        0.5111572170
HE2        10.2356630281        4.9715095414        1.3369766301
CD2         8.3724976145        4.4744167416        0.3475913482
HD2         8.1083415135        3.6964393724        1.0539783666
C           4.8422939881        5.9858894278       -0.0467692676
O           4.0044399159        6.4173363364       -0.8451405640
N           5.5833658903        6.7923891581        0.7189382167
H           6.2662937450        6.3683389221        1.3318644393
CA          5.5971042527        8.2575424695        0.6413269400
HA          5.3848063132        8.5597064484       -0.3856882309
CB          4.5004337629        8.8330030048        1.5533196197
HB2         3.5382562727        8.4113472705        1.2584320622
HB3         4.6923747147        8.5196274249        2.5809873868
CG          4.3893244971       10.3464578273        1.5049136276
CD1         4.9252378549       11.1315483631        2.5458014140
HD1         5.4017391761       10.6569753023        3.3952292137
CE1         4.8501054146       12.5368115276        2.4807506986
HE1         5.2613550047       13.1445097912        3.2750564628
CZ          4.2375902500       13.1619340109        1.3735584703
OH          4.1686733298       14.5183791727        1.3144786647
HH          3.7262792514       14.8144938440        0.5084388968
CE2         3.6985938566       12.3748889048        0.3322669379
HE2         3.2281066828       12.8517097065       -0.5168526822
CD2         3.7760825649       10.9695820326        0.3998570543
HD2         3.3640155689       10.3675528352       -0.4013974979
C           6.9808344661        8.8154526302        1.0223682356
O           7.6697953358        8.2541407274        1.8797819200
N           7.3817923324        9.9301082385        0.4058155153
H           6.7638471742       10.3547367848       -0.2727406690
CA          8.6483316263       10.6207484578        0.6699438635
HA2         8.6851771462       10.9161324387        1.7191125561
HA3         9.4805512388        9.9424192684        0.4792693210
C           8.8394639782       11.8745810647       -0.1918808772
O           8.0338799906       12.1623075085       -1.0828262756
N           9.9102373177       12.6263008143        0.0702594715
H          10.5318054880       12.3347500477        0.8132390788
CA         10.2588145792       13.8611883455       -0.6426361523
HA2        10.3934262829       13.6423162875       -1.7024869367
HA3         9.4426810987       14.5781058306       -0.5462646281
C          11.5418372072       14.5186504750       -0.1199046196
O          12.1778321524       14.0144043534        0.8111613884
N          11.9235899714       15.6483652140       -0.7202338507
H          11.3429200627       16.0092472920       -1.4649557540
CA         13.1101944313       16.4384657452       -0.3638908475
HA         13.3377961659       16.2846546664        0.6924228057
CB         14.3098741580       15.9489794858       -1.1938362232
HB2        14.4607899530       14.8856260059       -1.0008663525
HB3        14.0736748035       16.0564267402       -2.2539916730
CG         15.6114580811       16.6739561328       -0.9002063465
CD1        16.0849890447       17.6667521910       -1.7823030469
HD1        15.5304554592       17.9027100399       -2.6826967357
CE1        17.2777239837       18.3594262191       -1.4944759130
HE1        17.6399053053       19.1202412949       -2.1723363956
CZ         18.0016053360       18.0587447274       -0.3198730732
OH         19.1577598193       18.7168255598       -0.0394111678
HH         19.3727089474       19.3616967884       -0.7253386717
CE2        17.5272565200       17.0635568034        0.5615966880
HE2        18.0869931252       16.8363768876        1.4584834171
CD2        16.3335960325       16.3735883212        0.2716219921
HD2        15.9721954299       15.6110155990        0.9512812064
C          12.8694249248       17.9446132558       -0.5758675532
O          12.1023415558       18.3393001040       -1.4598157352
N          13.5357668356       18.7857907839        0.2207285449
H          14.1702752190       18.3927158742        0.9024889727
CA         13.5198305309       20.2494721292        0.1092569953
HA         13.3801417479       20.5227405690       -0.9380274078
CB         12.3391111377       20.8109128082        0.9197681595
HB2        11.4189550721       20.3330013465        0.5798705095
HB3        12.4727739526       20.5475453691        1.9704412958
CG         12.1594597787       22.3136535691        0.7986768881
CD1        12.5579628984       23.1644755619        1.8496249629
HD1        12.9845037656       22.7474353738        2.7540841201
CE1        12.4081957094       24.5601523982        1.7261882348
HE1        12.7155789550       25.2116739704        2.5328543583
CZ         11.8575830366       25.1090724115        0.5473774370
OH         11.7106194377       26.4546673261        0.4206559701
HH         12.0212590391       26.9193308335        1.2085557033
CE2        11.4582549949       24.2561080063       -0.5038558171
HE2        11.0363226789       24.6819207913       -1.4039495308
CD2        11.6092761906       22.8611145537       -0.3773294766
HD2        11.3005085394       22.2092746933       -1.1860029215
C          14.8551663700       20.8548891570        0.5819600768
O          15.4973438732       20.3208373699        1.4921773735
N          15.2676120381       21.9772134042       -0.0206075355
H          14.6723304952       22.3689791041       -0.7375969848
CH3        16.5001238202       22.6946942002        0.3052069939
HH31       17.3606111974       22.0314328176        0.1968338073
HH32       16.6252088790       23.5476567206       -0.3643415464
HH33       16.4608656203       23.0570317513        1.3343852747
         110
Energy of minimum      4=    -152.9588522     first found at step        0 after                  645 function calls
HH31        2.0705584074        1.2248979130        0.1011106869
CH3         2.1846468428        2.1856599900       -0.3987801373
HH32        1.3841493924        2.8558139633       -0.0890160585
HH33        2.1421958699        2.0432127440       -1.4775644769
C           3.5167698777        2.7938716625       -0.0277909081
O           4.2747815852        2.1991439798        0.7367387617
N           3.7999169434        3.9774940848       -0.5680371120
H           3.1070127244        4.3955997374       -1.1729484979
CA          5.0294984582        4.7454198014       -0.3311384198
HA          5.4254385193        4.4901492927        0.6532919263
CB          6.0787089610        4.3599331639       -1.3890914986
HB2         6.2838260326        3.2912731948       -1.3082578277
HB3         5.6603327631        4.5364947821       -2.3815986249
CG          7.3942164555        5.1097233681       -1.2681447793
CD1         7.6815533001        6.1809703663       -2.1388993231
HD1         6.9740153486        6.4575513636       -2.9114422746
CE1         8.8858051493        6.8999255180       -2.0047524844
HE1         9.1046935237        7.7204555514       -2.6743334544
CZ          9.8082177092        6.5474379777       -0.9954301053
OH         10.9758860489        7.2314468189       -0.8649100779
HH         11.0567017223        7.9242981933       -1.5324973780
CE2         9.5200343158        5.4743564253       -0.1248632287
HE2        10.2310794934        5.2082794370        0.6451343288
CD2         8.3146573528        4.7576132713       -0.2612914805
HD2         8.0965301316        3.9355556592        0.4100134012
C           4.7626388593        6.2616384810       -0.3490893992
O           3.8778225965        6.7368226109       -1.0679993954
N           5.5451095721        7.0232375363        0.4213853467
H           6.2639960563        6.5659053664        0.9653778603
CA          5.5506551796        8.4904110745        0.4353195238
HA          5.2772450740        8.8550234126       -0.5563650336
CB          4.5085732570        9.0008531386        1.4447080742
HB2         3.5319493975        8.5913374662        1.1819437548
HB3         4.7625193708        8.6260233557        2.4377648544
CG          4.3894234563       10.5135558549        1.4970257840
CD1         4.9865934322       11.2371145986        2.5492814040
HD1         5.5175853310       10.7137773593        3.3354866034
CE1         4.9017738583       12.6432732109        2.5790136317
HE1         5.3618056376       13.1971308132        3.3860270190
CZ          4.2166282996       13.3303476284        1.5530714117
OH          4.1310696373       14.6869703759        1.5746892787
HH          4.5800106064       15.0567732877        2.3459003478
CE2         3.6174733373       12.6046397548        0.5012026943
HE2         3.0936610317       13.1361195253       -0.2814680993
CD2         3.7048006272       11.1987917298        0.4738662929
HD2         3.2453591007       10.6451269156       -0.3363624803
C           6.9532710403        9.0312582879        0.7686945618
O           7.6905031005        8.4240347716        1.5514317168
N           7.3177045667       10.1811707254        0.1957900483
H           6.6619958398       10.6418324582       -0.4210080488
CA          8.5982853964       10.8584292773        0.4247084817
HA2         8.6928230391       11.1010657069        1.4837322671
HA3         9.4173219052       10.1907376305        0.1554894637
C           8.7455166703       12.1537535540       -0.3826374585
O           7.8892702506       12.4897844913       -1.2069183287
N           9.8356873893       12.8867262459       -0.1488725858
H          10.4992219353       12.5551946388        0.5390066802
CA         10.1495434207       14.1544397769       -0.8190173340
HA2        10.2168980739       13.9888508851       -1.8948233815
HA3         9.3466497886       14.8695318611       -0.6364500792
C          11.4675400160       14.7783322352       -0.3443515303
O          12.1548905892       14.2252197759        0.5200862486
N          11.8214389145       15.9342913479       -0.9108324581
H          11.1994634443       16.3347057128       -1.5999201973
CA         13.0342620965       16.6993076929       -0.5897628682
HA         13.3246830829       16.4921863414        0.4417479130
CB         14.1767769496       16.2449292902       -1.5148811044
HB2        14.3301756538       15.1725234295       -1.3839304789
HB3        13.8771393997       16.4059741564       -2.5519668533
CG         15.4999842759       16.9473678602       -1.2666197549
CD1        15.9271395516       17.9799517968       -2.1264332873
HD1        15.3206429940       18.2631650182       -2.9783986806
CE1        17.1410762227       18.6510103392       -1.8788521214
HE1        17.4676054480       19.4424114206       -2.5395887963
CZ         17.9328074938       18.2886694258       -0.7671076791
OH         19.1094909110       18.9257394657       -0.5263171877
HH         19.2875963139       19.6025390411       -1.1917338810
CE2        17.5047773126       17.2537322024        0.0920140047
HE2        18.1163313529       16.9794282363        0.9405895674
CD2        16.2898089994       16.5854863174       -0.1575189865
HD2        15.9641583428       15.7922316150        0.5048721912
C          12.7937863110       18.2153934647       -0.7124215364
O          11.9774064314       18.6575091647       -1.5270463997
N          13.5147792674       19.0124859655        0.0819147831
H          14.1864754369       18.5827069503        0.7032202236
CA         13.5045546468       20.4799535014        0.0434697685
HA         13.3034086015       20.8054104324       -0.9785928474
CB         12.3804661685       21.0071686293        0.9516049579
HB2        11.4371914953       20.5517264392        0.6459549594
HB3        12.5758923427       20.6914724564        1.9779024332
CG         12.2065962654       22.5150267458        0.9155455936
CD1        12.6759803846       23.3106728731        1.9803558808
HD1        13.1535357031       22.8471074936        2.8353141080
CE1        12.5308782497       24.7115503571        1.9348737937
HE1        12.8926533691       25.3207157469        2.7520099092
CZ         11.9138170242       25.3210734496        0.8205131093
OH         11.7708837099       26.6720775249        0.7691306031
HH         12.1331643817       27.0955274620        1.5582046567
CE2        11.4435734502       24.5233059793       -0.2446349372
HE2        10.9709651312       24.9953928773       -1.0950983634
CD2        11.5901238611       23.1229517514       -0.1961176876
HD2        11.2268472048       22.5135777424       -1.0151899857
C          14.8714267768       21.0538848233        0.4622305183
O          15.5634393040       20.4720109275        1.3040384260
N          15.2558675101       22.2022691559       -0.1089341555
H          14.6212545741       22.6322333445       -0.7679575141
CH3        16.5120943843       22.8959429138        0.1751958492
HH31       17.3586312938       22.2340601899       -0.0181574659
HH32       16.6033344538       23.7801819983       -0.4582733749
HH33       16.5389174183       23.2072913481        1.2213220954
         110
Energy of minimum      5=    -152.7983708     first found at step       16 after                11326 function calls
HH31        2.2598605225        1.6211475107       -0.0992395701
CH3         2.3533025126        2.5923481238       -0.5829842342
HH32        1.4810757512        3.2014997020       -0.3505798244
HH33        2.4255931054        2.4577133366       -1.6611853056
C           3.5967777878        3.2891459203       -0.0826271065
O           4.3176007951        2.7418429831        0.7502453727
N           3.8461474908        4.4949304898       -0.5894602302
H           3.1872289508        4.8690152523       -1.2578398361
CA          4.9897362615        5.3446870463       -0.2322497444
HA          5.3048927102        5.1103473285        0.7860025119
CB          6.1630160599        5.0430448954       -1.1830614702