         110
Energy of minimum      1=    -153.4419363     first found at step      104 after                72687 function calls
HH31       -1.2728732995        1.1580049481        7.1487463843
CH3        -0.6171266614        1.2777968061        6.2875741268
HH32       -1.2155609879        1.3592099958        5.3814254745
HH33        0.0444800445        0.4163399146        6.2098647902
C           0.2114838964        2.5300519787        6.4530347238
O           0.0755484660        3.2317603048        7.4539997249
N           1.0676108288        2.8092083288        5.4721680949
H           1.0974519799        2.1807130923        4.6816317238
CA          1.9551508452        3.9787766767        5.4289152438
HA          1.5032280620        4.7916697286        5.9999196303
CB          3.3018687798        3.6186575788        6.0833594698
HB2         3.1257980983        3.3458599974        7.1250775530
HB3         3.7142821455        2.7410634974        5.5823089737
CG          4.3321652387        4.7348052744        6.0452927387
CD1         4.2359065404        5.8132579901        6.9469114695
HD1         3.4488978106        5.8282638517        7.6915801563
CE1         5.1575327315        6.8772798905        6.8785350613
HE1         5.0813459361        7.7054112690        7.5698585656
CZ          6.1777634449        6.8662313487        5.9019436062
OH          7.0677352285        7.8911138685        5.8267227875
HH          6.8946784219        8.5587189831        6.5026520991
CE2         6.2762575252        5.7835284681        5.0023625270
HE2         7.0605400355        5.7792858106        4.2581854735
CD2         5.3559170590        4.7196290058        5.0756442330
HD2         5.4306375095        3.8952006379        4.3767414872
C           2.1652860806        4.4802858546        3.9883789805
O           2.1549947368        3.6915886016        3.0379723394
N           2.3958195134        5.7873393877        3.8329237901
H           2.4022760848        6.3672988681        4.6608019137
CA          2.8378820311        6.4264239932        2.5890384796
HA          3.4055484122        5.7025433889        2.0017576735
CB          1.6165554294        6.8651427334        1.7653121035
HB2         1.0290418887        7.5751824903        2.3499297522
HB3         0.9853625084        5.9949131168        1.5785470443
CG          1.9719602623        7.4911490379        0.4286594348
CD1         2.3597219408        6.6705146027       -0.6491697111
HD1         2.3826898952        5.5938214595       -0.5289732527
CE1         2.7197995142        7.2462066812       -1.8838378159
HE1         3.0175506198        6.6149924703       -2.7100619298
CZ          2.6935260836        8.6492237719       -2.0422627920
OH          3.0415451177        9.2122377374       -3.2297405016
HH          3.2853115612        8.5412353812       -3.8804774287
CE2         2.3041324295        9.4702316413       -0.9623572463
HE2         2.2864951355       10.5439960008       -1.0891791126
CD2         1.9440535252        8.8915333694        0.2705869945
HD2         1.6512040858        9.5265870466        1.0981069585
C           3.7620271625        7.6196324704        2.8924056679
O           3.5371215919        8.3566273229        3.8575112425
N           4.7910114291        7.8225629073        2.0659621253
H           4.9112572388        7.1972411097        1.2806147463
CA          5.7726776256        8.9027234902        2.2085215345
HA2         5.2670874439        9.8646136943        2.1174321394
HA3         6.2283946748        8.8511239239        3.1979102830
C           6.8897409160        8.8424640106        1.1601388173
O           6.9285792189        7.9344904603        0.3235544316
N           7.8055032499        9.8119639647        1.2022546051
H           7.7168734808       10.5258786885        1.9134633565
CA          8.9465291778        9.9240588727        0.2857286686
HA2         9.5614739977        9.0265707305        0.3610936700
HA3         8.5821999042        9.9994489007       -0.7393958486
C           9.8339754622       11.1413832483        0.5724709766
O           9.5631930897       11.9199905837        1.4923095967
N          10.8976371449       11.3066696173       -0.2172601649
H          11.0455287537       10.6369008820       -0.9599323820
CA         11.8629038890       12.4101679926       -0.1189055477
HA         11.3647879686       13.2842290252        0.3043891263
CB         13.0056159256       11.9991750899        0.8269031065
HB2        12.5853131881       11.7648003351        1.8062417309
HB3        13.4696863331       11.0878997414        0.4454649366
CG         14.0767691999       13.0603131373        1.0089300652
CD1        13.8305044929       14.1725692147        1.8380762340
HD1        12.8893817078       14.2548833761        2.3688420744
CE1        14.8046308065       15.1813596990        1.9767189403
HE1        14.6144383894       16.0347182743        2.6132732106
CZ         16.0295271578       15.0802030696        1.2809437534
OH         16.9744651576       16.0489625053        1.4105979843
HH         16.6809705393       16.7506805603        2.0057357843
CE2        16.2764264258       13.9641377741        0.4532672196
HE2        17.2165653754       13.8913759037       -0.0757966265
CD2        15.3017448351       12.9560519112        0.3187203415
HD2        15.4936674944       12.1049050984       -0.3234829722
C          12.4095857459       12.8089181444       -1.5023868826
O          12.5131819196       11.9700544195       -2.4029686225
N          12.7817029559       14.0822912011       -1.6639838366
H          12.6925725077       14.7061548137       -0.8735900988
CA         13.4540160598       14.6248600381       -2.8503448600
HA         14.0531159866       13.8362527031       -3.3087963521
CB         12.4007811718       15.0890648661       -3.8702239192
HB2        11.7318765277       14.2555869320       -4.0904890934
HB3        11.7972573888       15.8804808381       -3.4224003993
CG         12.9829388253       15.5842802261       -5.1820354398
CD1        13.0542213790       16.9660794331       -5.4516700538
HD1        12.6830533159       17.6807253680       -4.7268013557
CE1        13.6126822313       17.4234114294       -6.6618602168
HE1        13.6677588406       18.4839123185       -6.8667533433
CZ         14.1024609898       16.4962129609       -7.6076518416
OH         14.6432825642       16.9298548567       -8.7771641265
HH         14.6310176461       17.8940314457       -8.8355465692
CE2        14.0299536336       15.1129233200       -7.3367916654
HE2        14.4058169645       14.4073395986       -8.0650690963
CD2        13.4709928339       14.6589007419       -6.1258965407
HD2        13.4161005002       13.5961263754       -5.9217604580
C          14.4018107136       15.7764331596       -2.4652155295
O          14.1091993792       16.5454934958       -1.5436950031
N          15.5286557007       15.9080428668       -3.1762566478
H          15.6834532499       15.2566772986       -3.9335667258
CH3        16.5433014393       16.9365551481       -2.9468634994
HH31       16.9227333644       16.8671182682       -1.9252249622
HH32       17.3744697185       16.8045381782       -3.6419570491
HH33       16.1117958824       17.9281382303       -3.0970779841
         110
Energy of minimum      2=    -153.4356880     first found at step      141 after               111642 function calls
HH31       -0.9837506383        0.8227674188        7.0469737586
CH3        -0.3452426434        0.9607502887        6.1756301444
HH32       -0.9587962877        1.0088646955        5.2772460101
HH33        0.3498920942        0.1262381734        6.0965898971
C           0.4336835671        2.2472731073        6.3179279911
O           0.2828409823        2.9526075042        7.3141979173
N           1.2642428808        2.5514731032        5.3226317641
H           1.3089657475        1.9170218142        4.5375738818
CA          2.1025781506        3.7557432119        5.2561810146
HA          1.6256379409        4.5550942262        5.8259540873
CB          3.4716786297        3.4571881866        5.8949775390
HB2         3.3211126580        3.1876396090        6.9415287425
HB3         3.9127414842        2.5922649667        5.3963001577
CG          4.4548932835        4.6139481144        5.8321991804
CD1         4.3269436407        5.6963451830        6.7251089249
HD1         3.5501993546        5.6865610896        7.4805637556
CE1         5.2033064077        6.7963022192        6.6340285040
HE1         5.1027726959        7.6273599356        7.3186965370
CZ          6.2097344436        6.8172725392        5.6433790001
OH          7.0559784637        7.8767681404        5.5462591623
HH          6.8650145231        8.5433443704        6.2183713021
CE2         6.3401186377        5.7307401471        4.7525142174
HE2         7.1137063172        5.7511717594        3.9974903609
CD2         5.4651021970        4.6310057943        4.8484800519
HD2         5.5639162328        3.8035139436        4.1562205105
C           2.2723979617        4.2512969279        3.8082857969
O           2.2814010615        3.4535865242        2.8654182342
N           2.4471841918        5.5650751599        3.6375889173
H           2.4412103053        6.1528777960        4.4599205479
CA          2.8457737380        6.2094527395        2.3818011471
HA          3.4344913567        5.5035921080        1.7933121716
CB          1.5964300302        6.5899922900        1.5712660020
HB2         0.9884239345        7.2812076850        2.1574880587
HB3         0.9988267932        5.6929961275        1.4014025158
CG          1.9077121276        7.2168373846        0.2240448019
CD1         1.8205013263        8.6133124057        0.0534760667
HD1         1.5132883219        9.2439880545        0.8791344733
CE1         2.1397941429        9.1940943328       -1.1896830643
HE1         2.0766036769       10.2649592806       -1.3261387423
CZ          2.5476066077        8.3790865801       -2.2673327194
OH          2.8561094481        8.9441507649       -3.4647189540
HH          3.1181551485        8.2772880328       -4.1126005296
CE2         2.6332983565        6.9799181305       -2.0963640460
HE2         2.9452664985        6.3532901977       -2.9208314576
CD2         2.3139090270        6.4021569727       -0.8515087081
HD2         2.3824529884        5.3285179321       -0.7217250751
C           3.7244358049        7.4422196431        2.6611943525
O           3.4827646336        8.1788394039        3.6225261746
N           4.7329224214        7.6788052928        1.8185908810
H           4.8679163359        7.0512557663        1.0374283747
CA          5.6714862128        8.7993901830        1.9374467749
HA2         5.1258316316        9.7389557984        1.8445545678
HA3         6.1423237778        8.7760819960        2.9208080561
C           6.7757403643        8.7744095664        0.8741657889
O           6.8402321852        7.8606660881        0.0454849094
N           7.6516714058        9.7807156136        0.8945977866
H           7.5436499707       10.4973241448        1.6003961809
CA          8.7746301120        9.9301945298       -0.0387534760
HA2         9.4266262817        9.0592175172        0.0362264783
HA3         8.3936468239        9.9807589627       -1.0593388373
C           9.6155105242       11.1853107789        0.2244274302
O           9.3257025434       11.9611712301        1.1407823367
N          10.6607462685       11.3860071444       -0.5815347668
H          10.8257406557       10.7156178350       -1.3200318302
CA         11.5814601123       12.5287306513       -0.5067553666
HA         11.0538898243       13.3859032705       -0.0846111990
CB         12.7526710106       12.1737550084        0.4267988153
HB2        12.3555668698       11.9321067555        1.4140192754
HB3        13.2482684346       11.2783848768        0.0473592138
CG         13.7820751443       13.2792451404        0.5840828289
CD1        13.5018606024       14.3887667374        1.4060839556
HD1        12.5653751553       14.4380720273        1.9490059237
CE1        14.4358556341       15.4376090545        1.5217790379
HE1        14.2196189020       16.2888276718        2.1528608470
CZ         15.6544041414       15.3793648302        0.8101237428
OH         16.5607464042       16.3869378436        0.9176025480
HH         16.2469192907       17.0820529778        1.5101089627
CE2        15.9354317878       14.2660733077       -0.0103721675
HE2        16.8705670108       14.2262946635       -0.5516693686
CD2        15.0009058029       13.2179562726       -0.1219769618
HD2        15.2187016233       12.3689689011       -0.7587611868
C          12.0926596940       12.9358949081       -1.9013095093
O          12.2180709363       12.0932430298       -2.7955609877
N          12.4104540534       14.2216828349       -2.0796867130
H          12.3067285419       14.8490431553       -1.2938534927
CA         13.0439672513       14.7795684966       -3.2802096720
HA         13.6682251122       14.0114479213       -3.7398753953
CB         11.9589302245       15.1910318851       -4.2893299877
HB2        11.3213596824       14.3291459108       -4.4925396930
HB3        11.3300703880       15.9617298588       -3.8402361545
CG         12.5023940015       15.6965776738       -5.6137432487
CD1        12.5111083552       17.0770672313       -5.8982422048
HD1        12.1197166902       17.7837545229       -5.1763109410
CE1        13.0337059986       17.5427687106       -7.1209163058
HE1        13.0442032616       18.6007818619       -7.3442677997
CZ         13.5499102723       16.6283052674       -8.0639019069
OH         14.0537968475       17.0824022517       -9.2421272146
HH         14.3719369481       16.3557313296       -9.7934285665
CE2        13.5404720441       15.2452559560       -7.7786263504
HE2        13.9346019751       14.5424050236       -8.5000569878
CD2        13.0169580999       14.7826748357       -6.5549081905
HD2        13.0095234611       13.7208810834       -6.3384470216
C          13.9494551803       15.9721260758       -2.9187642246
O          13.6381044279       16.7379146146       -2.0006658227
N          15.0607715380       16.1417861758       -3.6459996380
H          15.2319004062       15.4896325713       -4.3990957011
CH3        16.0362269510       17.2122468436       -3.4396211534
HH31       16.4314157110       17.1679131335       -2.4225677014
HH32       16.8629038151       17.1069012336       -4.1445558513
HH33       15.5633627241       18.1842841528       -3.5930682258
         110
Energy of minimum      3=    -153.4255761     first found at step      145 after               115526 function calls
HH31       -0.9451767397        0.5695021025        6.7821291935
CH3        -0.3234859710        0.7324207385        5.9029652285
HH32       -0.9552598346        0.8226728041        5.0205969959
HH33        0.3583376474       -0.1073347272        5.7772766750
C           0.4758057691        2.0024538152        6.0769312315
O           0.3558105607        2.6711310871        7.1022491428
N           1.2891250329        2.3337168903        5.0760530887
H           1.3084879481        1.7291692110        4.2667367966
CA          2.1422564943        3.5287626066        5.0370639310
HA          1.6885202600        4.3118434830        5.6469677483
CB          3.5204152063        3.1884422439        5.6341290448
HB2         3.3884452417        2.8809925844        6.6727121482
HB3         3.9389293756        2.3376412342        5.0934890760
CG          4.5178039517        4.3340254681        5.5939830160
CD1         4.4237634652        5.3829205755        6.5300477002
HD1         3.6631973633        5.3541882217        7.3013150586
CE1         5.3130751097        6.4741108974        6.4619173168
HE1         5.2385844166        7.2794848565        7.1798023734
CZ          6.2984538356        6.5200420916        5.4511561602
OH          7.1570124645        7.5713944326        5.3761550134
HH          6.9896916764        8.2139919514        6.0772938247
CE2         6.3948692203        5.4669437894        4.5168777305
HE2         7.1524626502        5.5063126788        3.7465436788
CD2         5.5070106781        4.3757699642        4.5898688205
HD2         5.5797002007        3.5742477502        3.8646035298
C           2.2880321427        4.0770011330        3.6056375942
O           2.2661368152        3.3158089015        2.6332567759
N           2.4770619621        5.3939878847        3.4810863478
H           2.4963968273        5.9500108312        4.3250257067
CA          2.8575893820        6.0806661537        2.2422294378
HA          3.4235527889        5.3901964094        1.6144685850
CB          1.5965471402        6.5084083594        1.4745340622
HB2         1.0114275812        7.1852158113        2.0995738993
HB3         0.9825154297        5.6266313459        1.2847376092
CG          1.8871779128        7.1812637636        0.1450114251
CD1         1.8198902221        8.5846093895        0.0296081326
HD1         1.5431373065        9.1872624950        0.8864685119
CE1         2.1186435138        9.2091965126       -1.1976003576
HE1         2.0680409703       10.2860444480       -1.2842399358
CZ          2.4862293912        8.4283709715       -2.3153118616
OH          2.7767303100        9.0238622285       -3.5024179355
HH          2.6922778705        9.9844497226       -3.4454719029
CE2         2.5519883758        7.0233200419       -2.1987939470
HE2         2.8339163618        6.4304233819       -3.0581140904
CD2         2.2534057094        6.4019201386       -0.9701709207
HD2         2.3069811155        5.3231351046       -0.8838431998
C           3.7591359744        7.2901010251        2.5491498593
O           3.5460673134        7.9944624212        3.5409408830
N           4.7553342677        7.5430900151        1.6967593776
H           4.8669595630        6.9424343300        0.8911458542
CA          5.7130878598        8.6445393408        1.8392446811
HA2         5.1812575134        9.5949709309        1.7847364415
HA3         6.1965136436        8.5815638937        2.8147231287
C           6.8026808380        8.6376073730        0.7606867989
O           6.8387591532        7.7536285177       -0.1013185762
N           7.6980206165        9.6258803793        0.8054920960
H           7.6130305378       10.3182019142        1.5381680240
CA          8.8116622435        9.7879044158       -0.1368897354
HA2         9.4473705606        8.9024615993       -0.1023718876
HA3         8.4187479299        9.8830143714       -1.1497418783
C           9.6802767562       11.0162498889        0.1603298058
O           9.4169016999       11.7640193707        1.1074989492
N          10.7194923044       11.2256544552       -0.6511826030
H          10.8623018349       10.5792687376       -1.4152612124
CA         11.6634993705       12.3468885836       -0.5472105529
HA         11.1581473406       13.1983100753       -0.0878838538
CB         12.8386165429       11.9358008429        0.3579831148
HB2        12.4487332381       11.6663939362        1.3408873890
HB3        13.3117546560       11.0452835522       -0.0596272798
CG         13.8915593104       13.0147307856        0.5416728719
CD1        13.6433393256       14.0990537549        1.4064704829
HD1        12.7146375992       14.1468511953        1.9627331145
CE1        14.5992749544       15.1247338577        1.5477860699
HE1        14.4075917264       15.9566275983        2.2117182558
CZ         15.8077516197       15.0686335561        0.8189902533
OH         16.7351244383       16.0539116346        0.9509675610
HH         16.4423197653       16.7331163272        1.5720009674
CE2        16.0567276546       13.9804738039       -0.0444487829
HE2        16.9842899707       13.9421605820       -0.5987260601
CD2        15.1003258266       12.9553802962       -0.1816431995
HD2        15.2935463056       12.1258897918       -0.8512105902
C          12.1658169659       12.7941850903       -1.9326687563
O          12.2636596848       11.9821285682       -2.8581224161
N          12.5069111966       14.0791672152       -2.0688242166
H          12.4251672269       14.6796124212       -1.2597153938
CA         13.1368777291       14.6676580623       -3.2565328455
HA         13.7401946437       13.9046775297       -3.7513758526
CB         12.0481580827       15.1362753550       -4.2363376830
HB2        11.3912035589       14.2948257529       -4.4621937704
HB3        11.4401724561       15.9023113710       -3.7519128279
CG         12.5855754099       15.6786781419       -5.5485804447
CD1        12.6183155489       17.0681143093       -5.7834472378
HD1        12.2497852201       17.7557347194       -5.0316878030
CE1        13.1353022443       17.5674354595       -6.9951903472
HE1        13.1641495648       18.6324228155       -7.1805486737
CZ         13.6218178102       16.6777737039       -7.9768913753
OH         14.1204023627       17.1642586177       -9.1443956321
HH         14.4173642374       16.4519318039       -9.7254305285
CE2        13.5883130982       15.2857662017       -7.7413306171
HE2        13.9596662794       14.6019076285       -8.4924862097
CD2        13.0704853276       14.7895427494       -6.5284205593
HD2        13.0445455173       13.7209669933       -6.3501224907
C          14.0701322752       15.8285936643       -2.8640951473
O          13.7850740651       16.5666456484       -1.9152549306
N          15.1757968065       16.0027902031       -3.5988338623
H          15.3249057469       15.3750410715       -4.3769347028
CH3        16.1747195129       17.0459666489       -3.3666104608
HH31       16.5811190562       16.9572850151       -2.3569013618
HH32       16.9906284127       16.9501087953       -4.0853102139
HH33       15.7194435512       18.0319054798       -3.4790888502
         110
Energy of minimum      4=    -153.3189191     first found at step        0 after                68732 function calls
HH31       -1.5995098862        1.4335954420        7.6697921238
CH3        -1.0083509258        1.4861608185        6.7566988305
HH32       -1.6684838437        1.6244832567        5.9017435410
HH33       -0.4433812168        0.5633343682        6.6339360898
C          -0.0497434274        2.6506657256        6.8410535502
O          -0.0330400866        3.3644503589        7.8425705359
N           0.7459579737        2.8417479127        5.7906594433
H           0.6485789114        2.2117455309        5.0067852691
CA          1.7376758587        3.9177105889        5.6630344492
HA          1.4165205771        4.7724967292        6.2607595859
CB          3.0917431280        3.4275220242        6.2087904453
HB2         2.9761177757        3.1756544026        7.2641526647
HB3         3.3731034644        2.5123943911        5.6846859362
CG          4.2202155015        4.4362063942        6.0751785109
CD1         4.3051758358        5.5207675418        6.9705842654
HD1         3.5875168634        5.6150966479        7.7769383457
CE1         5.3182508132        6.4882661772        6.8161859914
HE1         5.3811551649        7.3213108938        7.5029275247
CZ          6.2484809901        6.3743236303        5.7595817236
OH          7.2257485856        7.3059902363        5.6013500489
HH          7.1755220149        7.9888480732        6.2823115227
CE2         6.1654866243        5.2853167429        4.8660670479
HE2         6.8815415204        5.2019699104        4.0603157680
CD2         5.1541033827        4.3178230114        5.0252474908
HD2         5.0894848206        3.4885931380        4.3310339854
C           1.8767352528        4.3929893624        4.2050957478
O           1.7106388294        3.6072033521        3.2668129676
N           2.2211462532        5.6705137934        4.0179784154
H           2.3528065869        6.2487103856        4.8365939150
CA          2.6199686347        6.2601648606        2.7356559000
HA          3.0633584904        5.4824798327        2.1113496087
CB          1.3840483641        6.8157874743        2.0101059540
HB2         0.9194000064        7.5816630052        2.6335183373
HB3         0.6570753738        6.0118524885        1.8844713826
CG          1.6880034322        7.4007902077        0.6425460043
CD1         1.9030260509        6.5435863732       -0.4549431490
HD1         1.8297629569        5.4701532243       -0.3260381445
CE1         2.2150671106        7.0782714115       -1.7207333269
HE1         2.3801870634        6.4189848001       -2.5620476065
CZ          2.3140131494        8.4766752416       -1.8907984412
OH          2.6167350117        9.0000344199       -3.1084436024
HH          2.7388550863        8.3068590636       -3.7700467357
CE2         2.0975804571        9.3344164762       -0.7911102819
HE2         2.1752978615       10.4043942485       -0.9270233041
CD2         1.7850993819        8.7967365125        0.4729925233
HD2         1.6253258425        9.4593617761        1.3151584925
C           3.6788450970        7.3567729139        2.9502563623
O           3.6078007941        8.1143891055        3.9229550566
N           4.6512061720        7.4552552890        2.0404139415
H           4.6442493988        6.8194853704        1.2542811907
CA          5.7427548017        8.4333555723        2.0912010920
HA2         5.3284569571        9.4403314689        2.0319681004
HA3         6.2711423179        8.3389912202        3.0404810755
C           6.7582835037        8.2607858688        0.9556449579
O           6.6385816250        7.3516807822        0.1279990345
N           7.7652902358        9.1351005928        0.9128271276
H           7.8062010892        9.8557587404        1.6215776077
CA          8.8323941524        9.1319564915       -0.0950418330
HA2         9.3602359024        8.1782537757       -0.0610424392
HA3         8.3940230352        9.2408251197       -1.0876537670
C           9.8558048563       10.2562277714        0.1057028489
O           9.7396266618       11.0596498584        1.0366487835
N          10.8618054770       10.3139965624       -0.7700916069
H          10.8814152863        9.6313380435       -1.5154895103
CA         11.9357596873       11.3169085008       -0.7624456416
HA         11.5630108882       12.2360224396       -0.3068744849
CB         13.1068509825       10.7952289910        0.0884607746
HB2        12.7437865378       10.5857029752        1.0959414650
HB3        13.4573884858        9.8515674399       -0.3333106818
CG         14.2783983180       11.7553145386        0.1963540439
CD1        14.1929768985       12.8744255471        1.0479283167
HD1        13.3013154915       13.0378570308        1.6414712229
CE1        15.2669022797       13.7826792771        1.1299446251
HE1        15.2081560406       14.6425617866        1.7829924206
CZ         16.4301240594       13.5749928534        0.3578199754
OH         17.4667247929       14.4502929639        0.4457489078
HH         18.2005925535       14.1874143747       -0.1242432037
CE2        16.5155743917       12.4530621441       -0.4954531957
HE2        17.4063639169       12.2907189068       -1.0867635531
CD2        15.4403769709       11.5458733595       -0.5743012281
HD2        15.5081867059       10.6881487557       -1.2327864911
C          12.3994637985       11.6576590829       -2.1908192071
O          12.3479268956       10.8089409447       -3.0866875304
N          12.8681997748       12.8915053338       -2.4007414454
H          12.9095105518       13.5245585393       -1.6136948024
CA         13.4489136756       13.3739872973       -3.6597190219
HA         13.9319038895       12.5385072933       -4.1693140102
CB         12.3288401861       13.9138218816       -4.5653976913
HB2        11.5757687105       13.1352885828       -4.6972543716
HB3        11.8430794677       14.7542134067       -4.0664781879
CG         12.7974562432       14.3509278352       -5.9418079456
CD1        12.9354007646       15.7208558271       -6.2442367220
HD1        12.6963131447       16.4686900263       -5.4975860811
CE1        13.3894824468       16.1228944331       -7.5161469254
HE1        13.4960030576       17.1742701662       -7.7462282358
CZ         13.7073337067       15.1520701098       -8.4911101917
OH         14.1467000029       15.5322301644       -9.7202229469
HH         14.1956205385       16.4940644165       -9.7955672872
CE2        13.5680715527       13.7807778030       -8.1873568741
HE2        13.8120327058       13.0416710148       -8.9381673867
CD2        13.1137897745       13.3820687180       -6.9147680527
HD2        13.0069901271       12.3283963643       -6.6855199795
C          14.5189049635       14.4510162102       -3.3985199158
O          14.4064586577       15.2266237676       -2.4435916511
N          15.5480823662       14.5135037583       -4.2527446204
H          15.5543703710       13.8622378413       -5.0258730102
CH3        16.6464342090       15.4759401355       -4.1669656991
HH31       17.1413254425       15.3955304795       -3.1970606046
HH32       17.3775771536       15.2810557100       -4.9536909201
HH33       16.2636180878       16.4915915021       -4.2850400973
         110
Energy of minimum      5=    -153.3086854     first found at step      166 after               130064 function calls
HH31       -1.7020788323        1.7049040200        7.8284334849
CH3        -1.1750685071        1.7679492602        6.8775094301
HH32       -0.6939191241        0.8148994732        6.6628896239
HH33       -1.8815434817        2.0052240044        6.0834998938
C          -0.1250398545        2.8514670876        6.9519706379
O           0.0184462363        3.5012134913        7.9864010268
N           0.6063997090        3.0454853912        5.8563733210
H           0.4046994068        2.4721469233        5.0492515083
CA          1.6673801320        4.0510238860        5.7124964835
HA          1.4571881126        4.8900778343        6.3779908268
CB          3.0144979735        3.4306419541        6.1272570017