         110
Energy of minimum      1=    -154.6658974     first found at step      153 after               104882 function calls
HH31       -1.3075443004        5.7254542984        2.3949807539
CH3        -0.8037129567        6.6796696885        2.5417413812
HH32       -1.0801313175        7.3637318485        1.7408225048
HH33       -1.0967996988        7.1034363274        3.5011532845
C           0.6913347186        6.4633435823        2.5200621090
O           1.3734652698        6.7625540084        3.4990743908
N           1.2016148665        5.9419665023        1.4066562301
H           0.5669188026        5.7290583351        0.6526115062
CA          2.6298957134        5.6631346834        1.2028625417
HA          3.0093122093        5.1647952366        2.0966524850
CB          2.8079003672        4.6988042078        0.0184767133
HB2         2.4620429269        5.1907442876       -0.8923555259
HB3         3.8720631563        4.4945854866       -0.1101033246
CG          2.0886483265        3.3692963512        0.1752366858
CD1         2.5966124477        2.3957327570        1.0589543863
HD1         3.5014899444        2.5938314446        1.6208048864
CE1         1.9307651095        1.1636963718        1.2156294621
HE1         2.3219012152        0.4185551344        1.8949972756
CZ          0.7512625005        0.9015857962        0.4848128263
OH          0.1029238095       -0.2845131740        0.6305916059
HH          0.5537745135       -0.8576032702        1.2642545355
CE2         0.2443976685        1.8755717142       -0.4019831152
HE2        -0.6583403681        1.6686590333       -0.9603423159
CD2         0.9124836885        3.1064752221       -0.5565084214
HD2         0.5194024672        3.8488295823       -1.2406280401
C           3.4620805534        6.9439962659        1.0003749972
O           2.9630945404        7.9549896782        0.4957023777
N           4.7466245100        6.8925991576        1.3658688485
H           5.0992782717        6.0261019122        1.7483389852
CA          5.7114332093        7.9917764966        1.2266207498
HA          5.4187507981        8.6204035797        0.3837613946
CB          5.6834622132        8.8542358751        2.5040418042
HB2         5.9203015161        8.2245365574        3.3634886478
HB3         4.6727875343        9.2389957955        2.6494668285
CG          6.6473795336       10.0270561038        2.4729330076
CD1         6.2763694351       11.2307356651        1.8410673954
HD1         5.2792852756       11.3442486764        1.4324726843
CE1         7.2096707203       12.2792394781        1.7171060650
HE1         6.9373450829       13.1998468822        1.2198137109
CZ          8.5239401569       12.1138632882        2.2038793977
OH          9.4481116601       13.0909710800        2.0207198525
HH         10.3349989976       12.7418862161        2.1959621776
CE2         8.8887051532       10.9159066134        2.8540955967
HE2         9.8946411760       10.7909823760        3.2307807011
CD2         7.9458595789        9.8816847604        3.0021945230
HD2         8.2346556393        8.9569701335        3.4872968118
C           7.1327405617        7.4650337101        0.9423220954
O           7.4862327244        6.3535063870        1.3483990350
N           7.9618180120        8.2761517098        0.2786131348
H           7.6077888100        9.1741462561       -0.0220770113
CA          9.3978668569        8.0416672376        0.0919457533
HA2         9.8441152477        7.7700570726        1.0495370501
HA3         9.5504760339        7.2145766083       -0.6017344771
C          10.1265590736        9.2760969274       -0.4548663817
O           9.5145053125       10.1223624233       -1.1133886899
N          11.4336341742        9.3766070628       -0.1952890107
H          11.8606471053        8.6446220337        0.3543251799
CA         12.2953173185       10.4886890989       -0.6262171462
HA2        12.0110674602       10.7919294232       -1.6349405503
HA3        13.3281440461       10.1425285945       -0.6705762112
C          12.2530083368       11.7295830677        0.2808038086
O          11.8021500270       11.6748276830        1.4295835334
N          12.7472576804       12.8573871010       -0.2366570788
H          13.1007449100       12.8279722098       -1.1831891300
CA         12.7676167568       14.1677642979        0.4297214058
HA         11.9462900736       14.2139721228        1.1458518604
CB         14.0876201936       14.3338531964        1.1991677421
HB2        14.1915325673       13.5065288524        1.9030290543
HB3        14.9194049300       14.2700586323        0.4954899064
CG         14.1889855303       15.6337887490        1.9763130265
CD1        14.9641548210       16.7000803146        1.4773951797
HD1        15.5047575123       16.5903079346        0.5449303086
CE1        15.0339648334       17.9147734045        2.1874470740
HE1        15.6262336302       18.7367362845        1.8095299237
CZ         14.3270131109       18.0672732677        3.3994140737
OH         14.4002123993       19.2400686751        4.0832970368
HH         13.8726639235       19.2104895340        4.8918836617
CE2        13.5518945213       16.9979006308        3.8996311088
HE2        13.0112547057       17.1117995598        4.8293862730
CD2        13.4841780867       15.7841206881        3.1872040663
HD2        12.8890129741       14.9651676454        3.5733453399
C          12.5636527232       15.3059515955       -0.5868148644
O          13.0051431582       15.2003053088       -1.7357573167
N          11.8897773645       16.3847955469       -0.1704728624
H          11.6397777438       16.4451733982        0.8059895237
CA         11.3814983101       17.4483074270       -1.0509562004
HA         11.9693425763       17.4625511743       -1.9701320112
CB          9.9140817983       17.1530806724       -1.4245153444
HB2         9.2891207202       17.3072649925       -0.5430219971
HB3         9.5909744267       17.8711449884       -2.1798088349
CG          9.6710600049       15.7469174849       -1.9489923115
CD1         9.3000076168       14.7234581305       -1.0538909211
HD1         9.1329946218       14.9513618668       -0.0090727696
CE1         9.1939229142       13.3944674343       -1.5019820646
HE1         8.9390604096       12.6103286567       -0.8050819488
CZ          9.4379009994       13.0857868829       -2.8566498590
OH          9.3806874061       11.7972352787       -3.2827538288
HH          9.2708034201       11.1871943110       -2.5308095218
CE2         9.7651213363       14.1166426664       -3.7637999619
HE2         9.9496635943       13.8741832095       -4.8012405245
CD2         9.8888549966       15.4448241903       -3.3080569798
HD2        10.1781701288       16.2280301271       -3.9980092813
C          11.4981524901       18.8371183698       -0.3988513504
O          11.4243817655       18.9663005925        0.8273282533
N          11.6492272943       19.8845360455       -1.2189454699
H          11.6899813726       19.6997088280       -2.2123241568
CH3        11.7625182178       21.2764839548       -0.7818283019
HH31       11.8907141278       21.9315767661       -1.6456354947
HH32       12.6232436127       21.3932964359       -0.1200451777
HH33       10.8607988847       21.5754374717       -0.2434241831
         110
Energy of minimum      2=    -153.8760579     first found at step      147 after               100717 function calls
HH31       -1.4977137713        4.9076265449        1.4464917986
CH3        -1.1603929764        5.9418181716        1.4972279856
HH32       -1.2928862771        6.4155367280        0.5257059363
HH33       -1.7398630590        6.4783972259        2.2470592155
C           0.3028136148        5.9718482348        1.8721425039
O           0.6671035025        6.5501592570        2.8949535859
N           1.1417373773        5.3481813154        1.0480428776
H           0.7544029303        4.9019438701        0.2309776437
CA          2.5955760699        5.2738104709        1.2482301971
HA          2.7816166901        5.0135878967        2.2917024819
CB          3.1844429344        4.1537363624        0.3747044197
HB2         3.0356458314        4.4100714747       -0.6757182284
HB3         4.2611886702        4.1060589071        0.5450777425
CG          2.6036561616        2.7751342921        0.6423223705
CD1         2.9692274523        2.0731963305        1.8087051773
HD1         3.6675089241        2.5143770498        2.5097665831
CE1         2.4286868310        0.7978311691        2.0676876889
HE1         2.7099590334        0.2615091218        2.9637950469
CZ          1.5185159330        0.2192672718        1.1561645531
OH          0.9924347505       -1.0106511035        1.3989907362
HH          1.3235232723       -1.3785975667        2.2285831374
CE2         1.1547562647        0.9212400250       -0.0129727600
HE2         0.4586068048        0.4724931297       -0.7083259316
CD2         1.6970081008        2.1962604347       -0.2691499140
HD2         1.4154271100        2.7287068295       -1.1696136912
C           3.3022015576        6.6153492198        0.9742612993
O           2.8422548791        7.4235294022        0.1611884622
N           4.4436833579        6.8409503720        1.6318740434
H           4.7801566021        6.1261974089        2.2622902599
CA          5.2833382583        8.0381173953        1.4863992192
HA          5.1519130069        8.4444172615        0.4820655357
CB          4.8258324226        9.0997264967        2.5018876360
HB2         4.9601924095        8.7048726282        3.5104413809
HB3         3.7584776184        9.2801182070        2.3641055549
CG          5.5427372353       10.4336218537        2.3867220203
CD1         5.2522492084       11.2956600685        1.3103622547
HD1         4.5096457011       11.0114850888        0.5741648935
CE1         5.9194845530       12.5311383695        1.1918917535
HE1         5.6918724259       13.1932458520        0.3676417059
CZ          6.8813087888       12.9079728055        2.1545959567
OH          7.5173102280       14.1050132761        2.0563003144
HH          7.2180777472       14.6008572788        1.2844081217
CE2         7.1761549649       12.0415823523        3.2287024815
HE2         7.9146361725       12.3352128536        3.9619333550
CD2         6.5076722215       10.8068695462        3.3441235147
HD2         6.7373676604       10.1464573705        4.1716394061
C           6.7766431416        7.7013922326        1.6604657474
O           7.1285520005        6.7250899000        2.3304411688
N           7.6591262237        8.5066148837        1.0639757660
H           7.3099354811        9.3048650307        0.5504809153
CA          9.1160114441        8.3489714568        1.1295934167
HA2         9.4401746193        8.4111019229        2.1689923748
HA3         9.3937038234        7.3669904739        0.7451197017
C           9.8685891143        9.4142291995        0.3236786180
O           9.2533030185       10.2673089359       -0.3240359071
N          11.2026710357        9.3588312644        0.3511769195
H          11.6310833324        8.6289296275        0.9025806182
CA         12.0951452610       10.3318759467       -0.2958826461
HA2        11.6932043039       10.6005196706       -1.2738301832
HA3        13.0691738421        9.8693835922       -0.4573109228
C          12.3097548086       11.6224774109        0.5099643764
O          11.8659133709       11.7429066170        1.6558271418
N          13.0091991283       12.5883209591       -0.0917538098
H          13.3270598318       12.4232872760       -1.0367022956
CA         13.3199151127       13.9028753433        0.4888553865
HA         12.6307099178       14.0978193301        1.3119858303
CB         14.7467453530       13.8877517284        1.0585962229
HB2        14.8276445770       13.0744489779        1.7816620621
HB3        15.4495281078       13.6775183357        0.2505378918
CG         15.1494660610       15.1784131318        1.7485443030
CD1        16.0006926695       16.0949365490        1.0988146211
HD1        16.3842820983       15.8746968278        0.1098029091
CE1        16.3515361688       17.3035250978        1.7319218458
HE1        17.0036508635       18.0109848221        1.2384781493
CZ         15.8504344716       17.6000572488        3.0175804582
OH         16.1945812605       18.7660129150        3.6263751870
HH         15.7855484050       18.8429876992        4.4980289584
CE2        14.9985624782       16.6807208888        3.6685181599
HE2        14.6151445289       16.9049200652        4.6546400479
CD2        14.6496741765       15.4726072283        3.0327770871
HD2        13.9960069000       14.7686839984        3.5342492988
C          13.1308921234       15.0268396526       -0.5455964978
O          13.3656359529       14.8217168991       -1.7410140925
N          12.6917805465       16.2056246450       -0.0893537788
H          12.6170710551       16.3331364368        0.9095635969
CA         12.1746033640       17.2916587551       -0.9355159211
HA         12.5765429814       17.1826968746       -1.9440914157
CB         10.6376532556       17.1894127894       -1.0174291476
HB2        10.2154725977       17.4536250365       -0.0461915212
HB3        10.2737789888       17.9233335095       -1.7381860569
CG         10.1183475074       15.8157444149       -1.4128777299
CD1         9.8047764490       14.8712763970       -0.4139736882
HD1         9.8860178783       15.1406699684        0.6315453236
CE1         9.4283045982       13.5627147992       -0.7688045746
HE1         9.2149071343       12.8354860331        0.0008224926
CZ          9.3434532932       13.1986300933       -2.1293103107
OH          9.0173843413       11.9266896958       -2.4769531973
HH          8.9643469291       11.3519382177       -1.6913355788
CE2         9.6189723658       14.1544550096       -3.1306787114
HE2         9.5515628106       13.8694740281       -4.1715348749
CD2        10.0128287087       15.4593411441       -2.7720427656
HD2        10.2565295768       16.1807954156       -3.5423124893
C          12.5916349733       18.6772729762       -0.4120690227
O          12.7655574474       18.8695996876        0.7955668663
N          12.7226325573       19.6558075808       -1.3164092773
H          12.5529208237       19.4234501571       -2.2858546171
CH3        13.0960507513       21.0358076154       -1.0040039878
HH31       13.1443559780       21.6277698349       -1.9199700766
HH32       14.0732492309       21.0593032446       -0.5172029081
HH33       12.3578799691       21.4820351268       -0.3344228442
         110
Energy of minimum      3=    -153.4419363     first found at step        0 after                39997 function calls
HH31        0.6945987295        1.1823715606       -1.0192527961
CH3         0.9954505764        2.1560112708       -1.4032909200
HH32        0.1803459849        2.8667347537       -1.2754872946
HH33        1.2411718630        2.0713025795       -2.4607953585
C           2.2080468656        2.6454703849       -0.6468811784
O           2.6932930933        1.9591543268        0.2510666576
N           2.6949707265        3.8307030143       -1.0089719168
H           2.2187464320        4.3282582943       -1.7482240225
CA          3.8550077370        4.4930824887       -0.3981889949
HA          3.9509706730        4.1625313198        0.6374761846
CB          5.1311518313        4.0834472286       -1.1566660282
HB2         5.2573874874        3.0026150945       -1.0762768012
HB3         5.0035539965        4.3184381506       -2.2148748045
CG          6.3981413043        4.7550342517       -0.6542179308
CD1         6.9319537900        5.8636440748       -1.3430900687
HD1         6.4593427306        6.2186151489       -2.2510353590
CE1         8.0728917794        6.5230029542       -0.8453097736
HE1         8.4839243790        7.3761481899       -1.3669532831
CZ          8.6866911158        6.0732767353        0.3430459953
OH          9.7870585409        6.7134231326        0.8200116621
HH         10.1117114147        6.3004496491        1.6303073457
CE2         8.1569837592        4.9577227806        1.0283730267
HE2         8.6268938013        4.6105947200        1.9384394298
CD2         7.0131300683        4.3024615815        0.5299311868
HD2         6.6036547298        3.4520889270        1.0622240251
C           3.6947703037        6.0244246846       -0.3868728716
O           3.0707346719        6.6000964121       -1.2838698867
N           4.2932160054        6.6856179853        0.6083090624
H           4.7974007047        6.1453129951        1.2979794041
CA          4.4522626385        8.1418055322        0.6812547150
HA          4.4816801563        8.5456579218       -0.3322465691
CB          3.2513600458        8.7616990307        1.4135135108
HB2         2.3349818942        8.4737142392        0.8959218562
HB3         3.1989812315        8.3507211369        2.4231966506
CG          3.2975167897       10.2771231894        1.4922282562
CD1         3.7035945512       10.9143117215        2.6821583306
HD1         3.9675242522       10.3248432848        3.5520498948
CE1         3.7745461918       12.3200624553        2.7415784099
HE1         4.0871549648       12.8145881265        3.6510204777
CZ          3.4390702270       13.0937474135        1.6098784542
OH          3.5104277469       14.4499626798        1.6714701767
HH          3.2548827920       14.8552700611        0.8326927974
CE2         3.0307885207       12.4549212063        0.4184705269
HE2         2.7729048956       13.0457225724       -0.4499666722
CD2         2.9615016466       11.0486855554        0.3620508359
HD2         2.6501160803       10.5603401638       -0.5538097692
C           5.7765490895        8.5074520284        1.3757980030
O           6.1841307992        7.8456335180        2.3355094727
N           6.4420964087        9.5656579132        0.9064949166
H           6.0471525882       10.0805484996        0.1311472688
CA          7.7192281841       10.0496973448        1.4407035451
HA2         7.5830444476       10.3591116749        2.4774620674
HA3         8.4509201122        9.2413220626        1.4210320711
C           8.2899596833       11.2350025814        0.6533757982
O           7.7078312777       11.6763988926       -0.3426631736
N           9.4354969440       11.7551365930        1.0978187665
H           9.8620455437       11.3463083218        1.9189540132
CA         10.1342105147       12.8882801664        0.4795063667
HA2         9.4771435504       13.7586207243        0.4711357251
HA3        10.3818779929       12.6413939621       -0.5534650776
C          11.4291310236       13.2691049010        1.2073896645
O          11.7952060675       12.6525166896        2.2131051322
N          12.1247970392       14.2886486047        0.6985179028
H          11.7536516748       14.7554267187       -0.1178113318
CA         13.3799853780       14.8172366126        1.2500785447
HA         13.4042273140       14.6315309426        2.3253488699
CB         14.5662085670       14.0786129294        0.6046565348
HB2        14.4718554042       13.0115087760        0.8122047563
HB3        14.5145452425       14.2052715306       -0.4781951086
CG         15.9284048144       14.5408204145        1.0917938131
CD1        16.7057800022       15.4112400300        0.3006663372
HD1        16.3457419515       15.7324464261       -0.6693384842
CE1        17.9489274984       15.8751472364        0.7736553226
HE1        18.5483021845       16.5451739741        0.1729238981
CZ         18.4199808255       15.4681065179        2.0401607725
OH         19.6219322438       15.9155077253        2.4911129156
HH         19.8251391697       15.5599948754        3.3657865004
CE2        17.6435908541       14.5915594214        2.8298383300
HE2        18.0038708158       14.2766552262        3.7996986547
CD2        16.3992103736       14.1312348559        2.3550535059
HD2        15.8029154407       13.4628553181        2.9648905671
C          13.4960277171       16.3380079204        1.0363681116
O          12.9710752956       16.8769876582        0.0568795795
N          14.2032156358       17.0254424321        1.9382454760
H          14.6264184001       16.5126547057        2.6997049125
CA         14.5487987321       18.4482961219        1.8387565780
HA         14.6291430256       18.7197032026        0.7847722268
CB         13.4320254900       19.2936473490        2.4736912044
HB2        12.4837405203       19.0403990246        1.9969768896
HB3        13.3450138744       19.0318388262        3.5296321965
CG         13.6380481406       20.7922508048        2.3443173166
CD1        13.4005394917       21.4283291193        1.1096547297
HD1        13.0566468847       20.8510095667        0.2595876313
CE1        13.6083376405       22.8155294653        0.9779892124
HE1        13.4273895530       23.3091727916        0.0329581525
CZ         14.0550105188       23.5718733296        2.0827697699
OH         14.2548502853       24.9101493799        1.9509610637
HH         14.5585561461       25.3048121313        2.7787288423
CE2        14.2923499578       22.9342997276        3.3202154953
HE2        14.6353401199       23.5115341894        4.1680568053
CD2        14.0835812941       21.5466698004        3.4486294391
HD2        14.2705254194       21.0604357151        4.3986544285
C          15.9084221098       18.7305381198        2.5054826769
O          16.2528709069       18.1039692615        3.5129754890
N          16.6753350977       19.6814438415        1.9574835989
H          16.3113212654       20.1696424523        1.1506911929
CH3        17.9942229577       20.0760674107        2.4522277331
HH31       18.4190452513       20.8499595030        1.8103233165
HH32       18.6651930744       19.2145002597        2.4582703589
HH33       17.9113403969       20.4667191387        3.4683577224
         110
Energy of minimum      4=    -153.4314634     first found at step        0 after                 6896 function calls
HH31        0.8193600418        0.9931644989       -0.8953520303
CH3         0.9345592846        2.0614508409       -1.0727345867
HH32        0.1959244469        2.6100807977       -0.4902561738
HH33        0.7925350827        2.2731308854       -2.1314559867
C           2.3206537919        2.4964390615       -0.6584366988
O           3.1132905608        1.6755074345       -0.1995213844
N           2.6110120763        3.7859179052       -0.8194237470
H           1.8888146815        4.3873161822       -1.1903641371
CA          3.8910883781        4.4165143486       -0.4712277081
HA          4.3576222126        3.8542636904        0.3395097573
CB          4.8281047207        4.3714382733       -1.6925362639
HB2         5.0078765484        3.3291312006       -1.9606300665
HB3         4.3269986315        4.8435853892       -2.5394588339
CG          6.1695816350        5.0510656855       -1.4750434201
CD1         6.3905293551        6.3538859980       -1.9673433652
HD1         5.6163679669        6.8607467305       -2.5308127863
CE1         7.6129797785        7.0070104460       -1.7157002615
HE1         7.7862430047        8.0075176157       -2.0870190809
CZ          8.6213435628        6.3572717714       -0.9725782918
OH          9.7991213195        6.9919759263       -0.7315803555
HH         10.4022653654        6.4349623483       -0.2231745976
CE2         8.4031654647        5.0492062817       -0.4866955417
HE2         9.1753297422        4.5489934925        0.0817096399
CD2         7.1776295993        4.3998167859       -0.7368321976
HD2         7.0095212299        3.3995066491       -0.3557038234
C           3.6979922938        5.8645695356        0.0152365617
O           2.7794015561        6.5615561705       -0.4272767478
N           4.5892081283        6.3281409165        0.8964489718
H           5.3211882694        5.7014105246        1.2017079162
CA          4.7186592701        7.7288325934        1.3116597820
HA          4.3744813141        8.3718173573        0.4997121590
CB          3.8366488241        7.9915146865        2.5427579130
HB2         2.8058755151        7.7270052391        2.3016573214
HB3         4.1587539231        7.3403438697        3.3572104082
CG          3.8596493234        9.4336301310        3.0166827230
CD1         4.6439400617        9.8034608361        4.1281402386
HD1         5.2201974225        9.0551963611        4.6591960113
CE1         4.6869935283       11.1476726210        4.5484312847
HE1         5.2903197040       11.4301732431        5.4004050324
CZ          3.9428565931       12.1275021038        3.8554078136
OH          3.9800374670       13.4265772969        4.2544598186
HH          4.5520118071       13.5431951129        5.0241017921
CE2         3.1570050686       11.7557027954        2.7435304820
HE2         2.5891035417       12.5102974969        2.2167327635
CD2         3.1166795431       10.4109697784        2.3253550121
HD2         2.5139177523       10.1295442814        1.4700317435
C           6.1911774046        8.0741538379        1.5983002547
O           6.9314753691        7.2528802047        2.1484289125
N           6.6156360447        9.2890609054        1.2421827662
H           5.9568993343        9.9253208289        0.8138135894
CA          7.9843666100        9.7808348964        1.4306499071
HA2         8.2129172144        9.8134527540        2.4964057087
HA3         8.6855517368        9.0950133895        0.9539813550
C           8.2066998378       11.1803321787        0.8453950523
O           7.2971453047       11.7768160782        0.2599974491
N           9.4214308346       11.7100261467        1.0008857064
H          10.1225986431       11.1686678047        1.4893945505
CA          9.8249524709       13.0334771303        0.5108028057
HA2         9.1857699521       13.7959491481        0.9573217741
HA3         9.6950570541       13.0743498749       -0.5712241377
C          11.2838850750       13.3779964616        0.8340455631
O          11.9993462557       12.5851452149        1.4546569255
N          11.7267688317       14.5647671453        0.4123816441
H          11.0777500722       15.1671225294       -0.0754390075
CA         13.0821325152       15.0893321700        0.6290524377
HA         13.4920270371       14.6544964059        1.5423892333
CB         13.9796000985       14.6729843383       -0.5501296116
HB2        13.9925208867       13.5838418032       -0.6156409313
HB3        13.5428887241       15.0495123399       -1.4768384690
CG         15.4137113203       15.1617308213       -0.4453928956
CD1        15.8363054900       16.2824037362       -1.1892556630
HD1        15.1466725562       16.7828338057       -1.8583497245
CE1        17.1541194518       16.7621519591       -1.0567722447
HE1        17.4832663843       17.6229443293       -1.6222481599
CZ         18.0551374640       16.1207650593       -0.1801888869
OH         19.3270468027       16.5850545468       -0.0581451905
HH         19.8371294581       16.0560119250        0.5684851525
CE2        17.6331050187       14.9946529327        0.5603968982
HE2        18.3227539097       14.5003559858        1.2309564922
CD2        16.3134081630       14.5186437842        0.4276638327
HD2        15.9903370172       13.6576081634        1.0007625374
C          13.0757153090       16.6195857355        0.8027453919
O          12.2230573462       17.3126533189        0.2387407817
N          14.0397254727       17.1482381325        1.5625317510
H          14.7190888803       16.5208748973        1.9708855763
CA         14.2909183100       18.5837427616        1.7359304559
HA         13.9840960714       19.1083312103        0.8294716047
CB         13.4519377406       19.1136935777        2.9107518691
HB2        12.4028800828       18.8726009664        2.7319003094
HB3        13.7529868703       18.5971017297        3.8237842879
CG         13.5601908285       20.6129123735        3.1243381728
CD1        12.8827826132       21.4948235045        2.2590357002
HD1        12.2737535752       21.1026246515        1.4531583571
CE1        12.9947160234       22.8874748344        2.4402365381
HE1        12.4768333487       23.5691342289        1.7794429906
CZ         13.7858370025       23.4029781216        3.4892820877
OH         13.8915322934       24.7475906348        3.6599801379
HH         14.4597433956       24.9644438215        4.4105173584
CE2        14.4641164105       22.5189366529        4.3567554403
HE2        15.0715161946       22.9114844177        5.1609000413
CD2        14.3501292308       21.1265392815        4.1728314485
HD2        14.8752044738       20.4515238316        4.8380899520
C          15.7911199169       18.8555417446        1.9556538685
O          16.4872856388       18.0500935062        2.5824571082
N          16.2884244466       19.9939341019        1.4562233982
H          15.6489028421       20.6154757141        0.9803491808
CH3        17.6865277709       20.4105743605        1.5643097400
HH31       17.8353425525       21.3606893958        1.0480153230
HH32       18.3374662981       19.6581467411        1.1141239365
HH33       17.9606324941       20.5327033233        2.6140475148
         110
Energy of minimum      5=    -153.3017865     first found at step        0 after                 1305 function calls
HH31        2.2642606228        1.2042278216       -0.8769712330
CH3         2.2981186517        2.2570742827       -1.1532666057
HH32        1.4784482667        2.7876801505       -0.6711305218
HH33        2.2077283265        2.3539440222       -2.2341533310
C           3.6114837014        2.8552456419       -0.7067480767
O           4.4404037794        2.1579209813       -0.1241379068
N           3.7993042223        4.1450609799       -0.9789250800
H           3.0536249133        4.6395689720       -1.4482541614
CA          4.9946970320        4.9211125465       -0.6235834399
HA          5.4541381418        4.4832982010        0.2642833505
CB          6.0097894074        4.8477102585       -1.7793628978