         110
Energy of minimum      1=    -153.4419363     first found at step        0 after                65389 function calls
HH31        1.8939677786        0.4744971281       -1.6682986785
CH3         2.0065760691        1.5192457280       -1.9542901746
HH32        1.1812677768        2.1006233038       -1.5459723230
HH33        2.0074053210        1.6024729530       -3.0400814489
C           3.3109482991        2.0544396527       -1.4117994097
O           4.0521532586        1.3241195150       -0.7560161725
N           3.5893232859        3.3276996407       -1.6843747293
H           2.9110212260        3.8530214348       -2.2180298975
CA          4.7931179335        4.0452084499       -1.2444340935
HA          5.1564212846        3.5987550204       -0.3171987755
CB          5.8910609141        3.8985354522       -2.3143128004
HB2         6.1316070780        2.8405226000       -2.4298217520
HB3         5.5007125948        4.2499331251       -3.2711072509
CG          7.1724885463        4.6523446465       -2.0005286804
CD1         8.0840747211        4.1313373178       -1.0609519973
HD1         7.8892446804        3.1752832442       -0.5896333862
CE1         9.2468323892        4.8542753278       -0.7269340132
HE1         9.9447119911        4.4542010912       -0.0041346893
CZ          9.4981958262        6.1058720746       -1.3311240942
OH         10.6152598465        6.8112891719       -1.0107386695
HH         11.1554319030        6.3411852716       -0.3628635633
CE2         8.5870496510        6.6247678813       -2.2754505835
HE2         8.7855987491        7.5823741352       -2.7364116020
CD2         7.4276467456        5.8980761198       -2.6100889507
HD2         6.7269194248        6.3052578627       -3.3290566672
C           4.4993382305        5.5304349017       -0.9640613614
O           3.6341505713        6.1345024761       -1.6059139391
N           5.2484202907        6.1274559584       -0.0323195309
H           5.9462577083        5.5699299649        0.4409294290
CA          5.2850489354        7.5705501152        0.2269807986
HA          5.0415412980        8.1018747901       -0.6947269184
CB          4.2345080479        7.9368227966        1.2875684158
HB2         3.2537366739        7.6060043958        0.9422685823
HB3         4.4555521857        7.3961211517        2.2094619196
CG          4.1576847905        9.4234065500        1.5859034069
CD1         3.4993475997       10.2860320016        0.6870234726
HD1         3.0306941489        9.8845925752       -0.2037364111
CE1         3.4498295442       11.6709353042        0.9421182834
HE1         2.9444524426       12.3317826844        0.2510263123
CZ          4.0622655857       12.1970512129        2.1007251492
OH          4.0205637172       13.5323341631        2.3526888006
HH          3.5414279495       14.0071588014        1.6612444656
CE2         4.7206290287       11.3320745431        3.0008641748
HE2         5.1884103992       11.7405720966        3.8861184307
CD2         4.7677952119        9.9478269868        2.7433101781
HD2         5.2792414241        9.2888564203        3.4347028473
C           6.6946728439        8.0057850273        0.6667004163
O           7.3727119098        7.2819592106        1.4025753453
N           7.1329131165        9.1900848575        0.2326754289
H           6.5233661261        9.7472191379       -0.3506861832
CA          8.4488154692        9.7565512466        0.5461326501
HA2         9.2273965770        9.0548117156        0.2451281159
HA3         8.5285361940        9.9107029603        1.6227167501
C           8.7098506589       11.0949945828       -0.1545798319
O           7.8746897291       11.5849058692       -0.9215811161
N           9.8741935474       11.6921389773        0.1062817491
H          10.5151716363       11.2374000501        0.7432330457
CA         10.3031284343       12.9734552497       -0.4671018035
HA2        10.3264807633       12.8942093565       -1.5545284637
HA3         9.5846070216       13.7490532169       -0.1997546119
C          11.6906371154       13.4156804278        0.0134366976
O          12.3349640120       12.7252740173        0.8095757564
N          12.1524468107       14.5707772034       -0.4711809631
H          11.5608918515       15.0888070334       -1.1065799985
CA         13.4470104118       15.1761097343       -0.1294211103
HA         13.7366724711       14.8581467153        0.8737119567
CB         14.5143973371       14.6800262052       -1.1213113618
HB2        14.5695053306       13.5917159166       -1.0644441195
HB3        14.2018689749       14.9374575872       -2.1348863654
CG         15.9037894850       15.2416509324       -0.8749696607
CD1        16.3931028069       16.2964952016       -1.6722783932
HD1        15.7901337850       16.6924468712       -2.4805858433
CE1        17.6637714131       16.8467964258       -1.4136009340
HE1        18.0432855953       17.6578474607       -2.0195953989
CZ         18.4508430447       16.3420835831       -0.3565329940
OH         19.6780342732       16.8738523162       -0.1127367858
HH         20.1102068699       16.4368897954        0.6322645046
CE2        17.9627130783       15.2815197844        0.4382250897
HE2        18.5653017154       14.8918172700        1.2473074324
CD2        16.6901040582       14.7348208730        0.1786317530
HD2        16.3155295680       13.9246028066        0.7929938051
C          13.3696422829       16.7142557611       -0.1273427218
O          12.5846865944       17.3051620163       -0.8757719787
N          14.2000025763       17.3626260441        0.6949598363
H          14.8335049273       16.8128635677        1.2591480101
CA         14.3804139622       18.8183124401        0.7425747559
HA         14.1890624047       19.2308715763       -0.2494834899
CB         13.3680128669       19.4293923303        1.7257169279
HB2        12.3626062148       19.1235233987        1.4320550511
HB3        13.5524756196       19.0251954844        2.7225742422
CG         13.3993628917       20.9460809891        1.7862804243
CD1        14.0170432652       21.6017609364        2.8705810461
HD1        14.4629755771       21.0244738441        3.6717072277
CE1        14.0615089571       23.0094856583        2.9144583665
HE1        14.5368187911       23.5110602903        3.7464320512
CZ         13.4862419425       23.7663580447        1.8702773077
OH         13.5258257707       25.1248509207        1.9052412928
HH         13.9752789057       25.4444933915        2.6983465840
CE2        12.8675268255       23.1087027017        0.7854760187
HE2        12.4278746821       23.6933834343       -0.0109937433
CD2        12.8247145556       21.7011032746        0.7445902983
HD2        12.3480231051       21.1996188356       -0.0893477578
C          15.8255084105       19.1794624294        1.1350447283
O          16.4502240019       18.4763169609        1.9360392060
N          16.3535824782       20.2809265936        0.5867795683
H          15.7691674482       20.8196920331       -0.0376792476
CH3        17.7090284634       20.7696902886        0.8394472088
HH31       17.8280989746       21.0130550289        1.8970833763
HH32       17.9003868132       21.6665020616        0.2473873660
HH33       18.4396652314       20.0047528919        0.5681981375
         110
Energy of minimum      2=    -153.3189191     first found at step        0 after                 6076 function calls
HH31        2.4816870775        1.0876152498       -0.6712978999
CH3         2.5045323219        2.1237296598       -1.0058370183
HH32        1.6688422619        2.6674127449       -0.5677868619
HH33        2.4313065807        2.1584261445       -2.0917947819
C           3.8009248689        2.7667987245       -0.5723116146
O           4.6300430684        2.1164917588        0.0620917572
N           3.9740778689        4.0421588108       -0.9135675168
H           3.2292654509        4.4976647150       -1.4221078176
CA          5.1514326101        4.8558210045       -0.5829955413
HA          5.6020112017        4.4758274623        0.3355137077
CB          6.1872679072        4.7338859801       -1.7160488028
HB2         6.4916881927        3.6898078566       -1.8045083812
HB3         5.7143785649        5.0160173030       -2.6584316054
CG          7.4314877475        5.5832250100       -1.5178408172
CD1         7.5621544848        6.8146225975       -2.1924536927
HD1         6.7913910608        7.1426258969       -2.8795255316
CE1         8.6880398805        7.6298660575       -1.9643336109
HE1         8.7913604442        8.5769503858       -2.4754818970
CZ          9.6901289332        7.2143133365       -1.0619334737
OH         10.7744118722        8.0049425543       -0.8443838725
HH         11.3851322872        7.6005383340       -0.2150954936
CE2         9.5633025027        5.9770786585       -0.3926883225
HE2        10.3309870326        5.6561454281        0.2981059416
CD2         8.4338594934        5.1653848853       -0.6201197473
HD2         8.3347887303        4.2205530160       -0.0989508634
C           4.7752623794        6.3296266203       -0.3438185169
O           3.8321979514        6.8465825546       -0.9511144064
N           5.5390464256        7.0152877007        0.5118702811
H           6.3016920635        6.5262645283        0.9602061449
CA          5.4934191810        8.4677921381        0.7099806551
HA          5.1567099923        8.9404820053       -0.2143234744
CB          4.4891925001        8.8113486544        1.8217971065
HB2         3.5134821908        8.4019850313        1.5553462628
HB3         4.8041916972        8.3278562941        2.7481431909
CG          4.3300887104       10.3015174697        2.0645314967
CD1         4.9746707830       10.9157648975        3.1572602561
HD1         5.5723886022       10.3231296572        3.8394334191
CE1         4.8495103344       12.3040453433        3.3614962323
HE1         5.3431497457       12.7812988478        4.1969087063
CZ          4.0783156670       13.0831276440        2.4725829984
OH          3.9615822543       14.4227058755        2.6728542312
HH          3.4085911918       14.8338852586        1.9959077838
CE2         3.4314578394       12.4669844065        1.3788791097
HE2         2.8396745708       13.0619014157        0.6965306159
CD2         3.5591603337       11.0783139244        1.1769661256
HD2         3.0638262071       10.6077941127        0.3358371720
C           6.8949550670        9.0135142387        1.0381673283
O           7.6657562169        8.3690931537        1.7563312296
N           7.2232104288       10.2034772001        0.5290164301
H           6.5415751065       10.6930003178       -0.0348957022
CA          8.5145285106       10.8682665192        0.7322175189
HA2         8.6511633452       11.0750410549        1.7941623955
HA3         9.3186632511       10.2063174256        0.4090748225
C           8.6390368089       12.1884331440       -0.0373436205
O           7.7257975533       12.5879938824       -0.7668253892
N           9.7740295751       12.8715600808        0.1221906092
H          10.4833442495       12.4885599628        0.7333638325
CA         10.0776232852       14.1514424064       -0.5291561402
HA2        10.0379016687       14.0256021787       -1.6117032164
HA3         9.3260918342       14.8894301353       -0.2465350932
C          11.4591881063       14.7045365076       -0.1589948689
O          12.1979305185       14.0938618255        0.6200948799
N          11.8096667028       15.8647623875       -0.7188440194
H          11.1453413844       16.3141526634       -1.3342670312
CA         13.0788132907       16.5683511789       -0.4875472118
HA         13.4528920212       16.3132282870        0.5055462340
CB         14.1112899480       16.1013226227       -1.5284710040
HB2        14.2292473271       15.0196286660       -1.4462607541
HB3        13.7255283835       16.3110135254       -2.5277119993
CG         15.4809061995       16.7405243660       -1.3818393874
CD1        15.8722778299       17.7848653120       -2.2444805534
HD1        15.2034379445       18.1223667852       -3.0271928001
CE1        17.1317586070       18.3971667961       -2.0893900580
HE1        17.4307062469       19.1976755040       -2.7522062929
CZ         18.0051530017       17.9639581222       -1.0678138950
OH         19.2254738763       18.5440668615       -0.9171033287
HH         19.3713444829       19.2362996315       -1.5744416041
CE2        17.6127456508       16.9173267114       -0.2058543859
HE2        18.2866916268       16.5886360737        0.5732988469
CD2        16.3521824242       16.3079451057       -0.3627035112
HD2        16.0541740076       15.5054919989        0.3016180157
C          12.8942574562       18.0963009009       -0.5394345483
O          12.0269604438       18.5996248195       -1.2605583301
N          13.7186658589       18.8349671040        0.2094849126
H          14.4249107989       18.3566560910        0.7520178789
CA         13.7687572007       20.3020903913        0.2185477535
HA         13.4895152523       20.6714441645       -0.7696805401
CB         12.7562042139       20.8417054039        1.2431413021
HB2        11.7700755949       20.4358423593        1.0119650392
HB3        13.0305566507       20.4821668839        2.2364211493
CG         12.6454675837       22.3556827641        1.2710297058
CD1        13.2441340200       23.0934509919        2.3124187296
HD1        13.7770635092       22.5809418372        3.1043951090
CE1        13.1565083693       24.4997749701        2.3248844396
HE1        13.6174229817       25.0644624996        3.1238592179
CZ         12.4674708560       25.1728645542        1.2922855929
OH         12.3792969694       26.5295092149        1.2971027739
HH         12.8300813989       26.9097217614        2.0622347456
CE2        11.8678267934       24.4330248695        0.2505721697
HE2        11.3405946013       24.9536818705       -0.5371173737
CD2        11.9571915766       23.0270569852        0.2410107470
HD2        11.4945926761       22.4622873198       -0.5597537348
C          15.1917828922       20.8051751622        0.5267704054
O          15.9317984320       20.1663544652        1.2820083567
N          15.5720231017       21.9566497129       -0.0409746145
H          14.8991947864       22.4349799219       -0.6244269348
CH3        16.8778847174       22.5885488719        0.1473003650
HH31       17.0135721995       22.8612465240        1.1957574900
HH32       17.6736825542       21.9003226158       -0.1445032710
HH33       16.9492602725       23.4903050378       -0.4636234156
         110
Energy of minimum      3=    -153.3086854     first found at step        0 after                 5386 function calls
HH31        2.4522396652        1.1274166171       -0.7273336738
CH3         2.4823669344        2.1621135172       -1.0656616447
HH32        1.6403701404        2.7089006464       -0.6438529535
HH33        2.4273434264        2.1924731378       -2.1528235432
C           3.7723908913        2.8049181853       -0.6131620601
O           4.5897334903        2.1559165808        0.0376473359
N           3.9533064801        4.0785956055       -0.9566672239
H           3.2178366282        4.5331825860       -1.4794295074
CA          5.1263108891        4.8917558453       -0.6097972947
HA          5.5608905685        4.5148078599        0.3176322999
CB          6.1806912996        4.7635896784       -1.7249124866
HB2         6.4847683814        3.7186685667       -1.8041159748
HB3         5.7240577446        5.0426952944       -2.6761716038
CG          7.4228895056        5.6116779366       -1.5093957614
CD1         7.5668676154        6.8401565348       -2.1866169481
HD1         6.8081568087        7.1667234170       -2.8876470704
CE1         8.6902888069        7.6543662385       -1.9431668547
HE1         8.8037346372        8.5992081208       -2.4563102659
CZ          9.6766139377        7.2406836258       -1.0227227485
OH         10.7586069948        8.0302685098       -0.7904808496
HH         11.3582169064        7.6272425841       -0.1497299441
CE2         9.5365195175        6.0063765854       -0.3507266467
HE2        10.2921262961        5.6868752304        0.3539097394
CD2         8.4095359923        5.1957263305       -0.5935601371
HD2         8.3001970791        4.2531452439       -0.0703723641
C           4.7486062781        6.3671077594       -0.3829204791
O           3.8166863173        6.8830608866       -1.0080085480
N           5.4990993905        7.0550463053        0.4826426995
H           6.2532220567        6.5666034846        0.9457752159
CA          5.4524985101        8.5084086436        0.6741121116
HA          5.1315707841        8.9779008661       -0.2574077117
CB          4.4308825714        8.8578470325        1.7680687249
HB2         3.4592422392        8.4480116785        1.4878218336
HB3         4.7304707201        8.3782633962        2.7015324363
CG          4.2690585536       10.3491838241        2.0016470631
CD1         4.8995765146       10.9685176385        3.0998717042
HD1         5.4884573431       10.3781365134        3.7917258146
CE1         4.7722975695       12.3577009453        3.2982980273
HE1         5.2578263093       12.8317071719        4.1404668550
CZ          4.0112953040       13.1322990570        2.3955466185
OH          3.8846187360       14.4732597325        2.5799335602
HH          4.3631086781       14.7683129970        3.3654867075
CE2         3.3794598863       12.5107963684        1.2970990397
HE2         2.7978289566       13.1089637846        0.6091004215
CD2         3.5092793763       11.1217241737        1.1010650738
HD2         3.0245445182       10.6483233423        0.2554743984
C           6.8494092526        9.0530978617        1.0229284576
O           7.6058053911        8.4119528305        1.7591149153
N           7.1897646585       10.2384170792        0.5109126162
H           6.5195899313       10.7254346242       -0.0686908285
CA          8.4797454200       10.9005370276        0.7307548550
HA2         8.5964725255       11.1206733262        1.7923808763
HA3         9.2871474398       10.2310858470        0.4321555815
C           8.6252367684       12.2099072541       -0.0534190280
O           7.7261637686       12.6062530124       -0.8019851733
N           9.7623337641       12.8873668862        0.1150471653
H          10.4594611245       12.5074505106        0.7419640435
CA         10.0849987690       14.1565162536       -0.5480335058
HA2        10.0607762633       14.0168787938       -1.6293475777
HA3         9.3346320968       14.9033943423       -0.2864606534
C          11.4647662574       14.7046399348       -0.1640299321
O          12.1867498577       14.0994978389        0.6348368781
N          11.8325622902       15.8543848094       -0.7342959383
H          11.1812328973       16.3000015696       -1.3661371231
CA         13.1032607791       16.5518088066       -0.4930561518
HA         13.4600560944       16.3077876234        0.5091450081
CB         14.1481040077       16.0627948335       -1.5112986202
HB2        14.2566217217       14.9815140241       -1.4123539888
HB3        13.7793745329       16.2613843174       -2.5192003387
CG         15.5200808836       16.6939217600       -1.3522795098
CD1        15.9325666608       17.7232495739       -2.2230891749
HD1        15.2784341975       18.0547079975       -3.0206723585
CE1        17.1940906943       18.3284050113       -2.0569511417
HE1        17.5092475873       19.1173903918       -2.7260457874
CZ         18.0483455232       17.9030784533       -1.0160615776
OH         19.2705408750       18.4762695083       -0.8544659168
HH         19.4317458122       19.1581860676       -1.5189664024
CE2        17.6348174607       16.8714586163       -0.1459177547
HE2        18.2941792036       16.5487209570        0.6480613705
CD2        16.3722604775       16.2692055787       -0.3138714863
HD2        16.0580073010       15.4782865229        0.3567658284
C          12.9310575928       18.0802017667       -0.5688707048
O          12.0787451539       18.5797882858       -1.3101756114
N          13.7494316775       18.8231550882        0.1824229855
H          14.4436467640       18.3472755867        0.7423420599
CA         13.8104794892       20.2898541796        0.1719690026
HA         13.5492668246       20.6474351531       -0.8254766396
CB         12.7864121972       20.8511422820        1.1732083748
HB2        11.8009091437       20.4493585971        0.9324380142
HB3        13.0427360477       20.5034884196        2.1754941375
CG         12.6867265377       22.3661349942        1.1784295213
CD1        13.2749527622       23.1139407053        2.2186080992
HD1        13.7918064199       22.6086279890        3.0257183510
CE1        13.1977958324       24.5209083917        2.2102552328
HE1        13.6506919316       25.0932860576        3.0083429042
CZ         12.5297575408       25.1845724984        1.1579445690
OH         12.4517935708       26.5417642063        1.1426235291
HH         12.8936845898       26.9292938343        1.9092708201
CE2        11.9405428121       24.4346980527        0.1174558593
HE2        11.4293849905       24.9481758976       -0.6853959166
CD2        12.0193981294       23.0281143517        0.1287332945
HD2        11.5648488729       22.4556436707       -0.6711724035
C          15.2323660606       20.7867033098        0.4951947724
O          15.9557935700       20.1530850210        1.2706173575
N          15.6300278927       21.9272793465       -0.0825262587
H          14.9699149639       22.4023347781       -0.6829326463
CH3        16.9375930764       22.5521090018        0.1171728933
HH31       17.0591793980       22.8384747559        1.1637141970
HH32       17.7325447862       21.8540086276       -0.1526541159
HH33       17.0252140467       23.4446584188       -0.5050527676
         110
Energy of minimum      4=    -153.0984208     first found at step        0 after                64042 function calls
HH31        1.3878943921        0.9505166697       -1.3703134993
CH3         1.6627911861        1.9179214884       -1.7880821658
HH32        0.9020574925        2.6546889386       -1.5344801135
HH33        1.7444637380        1.8380093506       -2.8710468049
C           2.9916483836        2.3557619365       -1.2183974924
O           3.5806336295        1.6419487831       -0.4082407119
N           3.4612998247        3.5279232706       -1.6408506664
H           2.8980136028        4.0508824585       -2.2966464403
CA          4.7225041271        4.1426376001       -1.2058774033
HA          4.9608842008        3.7939299561       -0.1995908690
CB          5.8535118685        3.7004948843       -2.1513886325
HB2         5.9351365837        2.6128976030       -2.1180088363
HB3         5.5866434680        3.9752488954       -3.1734324416
CG          7.2128796889        4.2921966295       -1.8207411730
CD1         7.9552617343        3.7860783509       -0.7355430479
HD1         7.5690931637        2.9581540738       -0.1529410654
CE1         9.2007564635        4.3561242602       -0.4053260062
HE1         9.7758698864        3.9714384246        0.4256620068
CZ          9.7074877909        5.4361903833       -1.1597255678
OH         10.9131441274        5.9782903078       -0.8421109090
HH         11.1497550934        6.6934588539       -1.4461104344
CE2         8.9635081397        5.9430435184       -2.2475840427
HE2         9.3500562416        6.7692762421       -2.8284811724
CD2         7.7186303117        5.3705005932       -2.5756021132
HD2         7.1484177572        5.7652946490       -3.4080222610
C           4.6166333231        5.6778187673       -1.1560384098
O           3.8840583262        6.2843623109       -1.9440617990
N           5.3679176676        6.3074443079       -0.2476990098
H           5.9613095450        5.7461682683        0.3479036945
CA          5.5204213537        7.7624664861       -0.1357257965
HA          5.4145861444        8.2068814520       -1.1269008292
CB          4.4148009197        8.3290380215        0.7710099918
HB2         3.4433429559        8.0442441456        0.3639478455
HB3         4.4993519018        7.8754929063        1.7600977320
CG          4.4455180158        9.8406356622        0.9101573187
CD1         3.9765824837       10.6514243980       -0.1425632799
HD1         3.5732558821       10.1953160996       -1.0389673372
CE1         4.0323087383       12.0552043009       -0.0341338344
HE1         3.6725204828       12.6761782228       -0.8432472164
CZ          4.5603424195       12.6522095197        1.1316321547
OH          4.6195022378       14.0058467427        1.2427631129
HH          4.2679559948       14.4403262956        0.4548924542
CE2         5.0282139403       11.8392597580        2.1861636820
HE2         5.4317656265       12.3018932927        3.0763666467
CD2         4.9703448985       10.4360663462        2.0750763274
HD2         5.3362844489        9.8166761166        2.8851655959
C           6.9163475239        8.1293885255        0.4008590656
O           7.4847661730        7.4022456125        1.2212619068
N           7.4622781373        9.2652233395       -0.0409562358
H           6.9384646016        9.8285732389       -0.6973559005
CA          8.7627350649        9.7890723552        0.3894676118
HA2         9.5418996426        9.0594262967        0.1667650179
HA3         8.7468912611        9.9497093042        1.4680353976
C           9.1315665022       11.1129659844       -0.2907081334
O           8.4249900221       11.5856499061       -1.1867297904
N          10.2434462792       11.7167584213        0.1329849922
H          10.7781009516       11.2766142539        0.8704016706
CA         10.7556882503       12.9881395368       -0.3922539223
HA2        10.9492900206       12.8873171308       -1.4607400498
HA3        10.0032612763       13.7658362603       -0.2567073235
C          12.0501797174       13.4459688720        0.2906394753
O          12.5655765807       12.7715622491        1.1879635078
N          12.5774475296       14.5963664306       -0.1347316038
H          12.0898759197       15.1011058976       -0.8624232039
CA         13.8008231736       15.2148300059        0.3943981358
HA         13.9322337284       14.9138011272        1.4352608396
CB         15.0113342689       14.7105747088       -0.4116048443
HB2        15.0611058987       13.6236080979       -0.3296553389
HB3        14.8592062004       14.9507894554       -1.4653756306
CG         16.3433637688       15.2845129809        0.0387403262
CD1        16.9466290369       16.3303062057       -0.6894169109
HD1        16.4751432126       16.7103029772       -1.5877563679
CE1        18.1595078903       16.8923604889       -0.2451599582
HE1        18.6255036447       17.6965785722       -0.7975601090
CZ         18.7746005256       16.4085054432        0.9292143509
OH         19.9469162088       16.9515342212        1.3523078422
HH         20.2596840732       16.5285195092        2.1622289589
CE2        18.1729212677       15.3569646028        1.6551277426
HE2        18.6438871541       14.9832287512        2.5540765979
CD2        16.9582545531       14.7984855450        1.2096078535
HD2        16.4958359328       13.9952587618        1.7710318629
C          13.7181562266       16.7523195208        0.3600987046
O          13.0568657862       17.3269802885       -0.5104944187
N          14.4080293215       17.4181611989        1.2911159066
H          14.9482132263       16.8809223540        1.9555320962
CA         14.5731662478       18.8755065323        1.3432116747
HA         14.5368011419       19.2719408629        0.3270831357
CB         13.4178233233       19.4948483677        2.1472914937
HB2        12.4715124740       19.1782710167        1.7058051419
HB3        13.4466114480       19.1068084781        3.1669593472
CG         13.4334446350       21.0124419966        2.1880424953
CD1        13.8724067599       21.6881854135        3.3446912300
HD1        14.1905705619       21.1257972626        4.2144098477
CE1        13.9040062841       23.0966622835        3.3727193677
HE1        14.2421766294       23.6136402402        4.2604419873
CZ         13.4951817107       23.8341534676        2.2399921358
OH         13.5235378187       25.1932405390        2.2592341531
HH         13.8429221056       25.5275654031        3.1074181095
CE2        13.0552827811       23.1564209963        1.0827193439
HE2        12.7425694739       23.7263126287        0.2184604913
CD2        13.0248505507       21.7481246903        1.0579010225
HD2        12.6856196779       21.2311995602        0.1680223516
C          15.9382338958       19.2516034999        1.9497622746
O          16.4335779362       18.5644375370        2.8490463729
N          16.5407928424       20.3480950785        1.4729925069
H          16.0584572904       20.8737912453        0.7569240770
CH3        17.8385308332       20.8491446279        1.9255305992
HH31       17.7907425795       21.1089967982        2.9848661448
HH32       18.1160871048       21.7382258162        1.3563895763
HH33       18.6054653738       20.0848920811        1.7831767811
         110
Energy of minimum      5=    -153.0758728     first found at step      121 after                82732 function calls
HH31       -0.6569840204        2.9875450014        6.1473709739
CH3        -0.6914849433        2.3374364179        5.2744306405
HH32       -1.5991692238        2.5384581979        4.7073605717
HH33       -0.6836191610        1.2963513582        5.5938846051
C           0.5119661950        2.6080575409        4.4023207000
O           1.3139145437        1.7072306127        4.1611191897
N           0.6373338816        3.8473441279        3.9317337787
H          -0.0644916138        4.5239116046        4.1973346127
CA          1.7348196488        4.3238211511        3.0795625059
HA          2.6263999671        3.7269183876        3.2791277798
CB          1.3471350121        4.1347868578        1.6021747275