         110
Energy of minimum      1=    -153.7659445     first found at step      197 after               135797 function calls
HH31       -0.2480093931        0.9726419220        2.6533292709
CH3        -0.2276372866        1.9541888054        2.1820319427
HH32       -0.8462776908        1.9418054248        1.2859298349
HH33       -0.6093505621        2.7008497935        2.8767603729
C           1.1923072861        2.3041018079        1.8033212603
O           2.1066287529        1.5176427441        2.0447322069
N           1.3755127725        3.4828509320        1.2117203665
H           0.5642869755        4.0680404796        1.0691965774
CA          2.6710477989        4.0205232560        0.7755355901
HA          3.4606992129        3.5983378086        1.3994288993
CB          2.9288307877        3.5989191367       -0.6819279620
HB2         2.9301462784        2.5091888072       -0.7380398012
HB3         2.1054557294        3.9553986071       -1.3034226356
CG          4.2385696717        4.1082400711       -1.2583073822
CD1         4.2456410831        5.2165265843       -2.1300547868
HD1         3.3139593079        5.6945289608       -2.4082766539
CE1         5.4633548322        5.7107433405       -2.6380687228
HE1         5.4666156525        6.5602662324       -3.3072689937
CZ          6.6806694596        5.0948060186       -2.2737989498
OH          7.8590430156        5.5610001614       -2.7662139336
HH          7.7226880375        6.3099221653       -3.3602610909
CE2         6.6723216210        3.9846814413       -1.4020317183
HE2         7.6076539784        3.5163251360       -1.1280157400
CD2         5.4530112374        3.4933761003       -0.8950029563
HD2         5.4510242497        2.6420127957       -0.2247828019
C           2.7267154509        5.5520887431        0.9230155920
O           1.7063454309        6.2348759946        0.7880371677
N           3.9221400314        6.0938416445        1.1748876638
H           4.7176495949        5.4743913336        1.2477034803
CA          4.2086222304        7.5323375023        1.2134875398
HA          3.5380791140        8.0448509012        0.5215231287
CB          3.9464568590        8.0744329731        2.6301761012
HB2         2.8939823726        7.9275176200        2.8772374057
HB3         4.5349020828        7.4961386763        3.3446330818
CG          4.2774143641        9.5474480907        2.7918831212
CD1         3.4507889477       10.5245364666        2.2017786737
HD1         2.5495184851       10.2277701467        1.6785518218
CE1         3.8047168908       11.8868872371        2.2719528746
HE1         3.1776420456       12.6344171585        1.8054326933
CZ          4.9897325999       12.2743264074        2.9352358896
OH          5.3612678089       13.5827059380        2.9723333704
HH          4.6980537966       14.1456584258        2.5514797844
CE2         5.8035055740       11.2965750669        3.5460434623
HE2         6.7078727534       11.5967563222        4.0568390509
CD2         5.4487627607        9.9360972162        3.4721044700
HD2         6.0904918577        9.1883586278        3.9223346557
C           5.6541793022        7.8243434822        0.7657119173
O           6.5632335310        7.0240511339        1.0058911747
N           5.8708969580        8.9828479254        0.1374712053
H           5.0843906709        9.6015918036       -0.0079981035
CA          7.1800818357        9.4782202981       -0.2996578870
HA2         7.8506227579        9.5307875657        0.5588805094
HA3         7.6097762578        8.7893414000       -1.0273977170
C           7.0969499385       10.8711564653       -0.9370263554
O           6.0025729338       11.3830843677       -1.1948647058
N           8.2498534895       11.4911696842       -1.1966449996
H           9.1148894755       11.0191923496       -0.9700062241
CA          8.3498478487       12.8376865043       -1.7720994111
HA2         7.9593433977       12.8305012159       -2.7901128854
HA3         7.7398927658       13.5228337143       -1.1817267141
C           9.7825195455       13.3810899757       -1.8103202159
O          10.7498945652       12.6292191410       -1.6568049195
N           9.9108864562       14.6955833151       -2.0043270728
H           9.0651385108       15.2389993861       -2.1064011749
CA         11.1732842689       15.4463139527       -1.9704228315
HA         11.9583813777       14.8043996270       -1.5678344550
CB         11.5752286187       15.8438365001       -3.3984968115
HB2        11.6380502031       14.9416843749       -4.0092610347
HB3        10.7928885664       16.4737588864       -3.8253215725
CG         12.9049676845       16.5705730322       -3.4846856993
CD1        12.9396471343       17.9682652036       -3.6634649142
HD1        12.0167916576       18.5283677755       -3.7552345453
CE1        14.1754108937       18.6423982760       -3.7188345644
HE1        14.2086525188       19.7145516928       -3.8553136061
CZ         15.3814872168       17.9200999863       -3.5938358360
OH         16.5719618511       18.5743074443       -3.6513916579
HH         17.3146949013       17.9645675929       -3.5534282348
CE2        15.3460165989       16.5195419504       -3.4156156315
HE2        16.2690559011       15.9637490896       -3.3217077395
CD2        14.1084356152       15.8480752505       -3.3610516282
HD2        14.0837611750       14.7733393127       -3.2246399355
C          11.0550767209       16.6669956161       -1.0407594079
O           9.9811606922       17.2687647156       -0.9347276027
N          12.1470245965       17.0198884038       -0.3538796821
H          13.0156736717       16.5487025283       -0.5608181720
CA         12.1458270140       17.9369288712        0.7955817140
HA         11.2493247280       18.5577281305        0.7579789157
CB         12.1047786114       17.1184058722        2.1018236638
HB2        13.0804496645       16.6530882427        2.2530367523
HB3        11.9407626926       17.7997318722        2.9381168677
CG         11.0413429436       16.0304049225        2.1421137010
CD1        11.3807696826       14.7053431366        1.7987598021
HD1        12.4025193036       14.4564526275        1.5399403074
CE1        10.3899677223       13.7056992666        1.7688876875
HE1        10.6434729353       12.6915924022        1.4931562504
CZ          9.0553409312       14.0246452824        2.0945940058
OH          8.1058250382       13.0546615044        2.0552234066
HH          7.2390697036       13.3826279578        2.3381502396
CE2         8.7163364224       15.3467831446        2.4566508419
HE2         7.6933857808       15.5915621840        2.7078635133
CD2         9.7091599648       16.3478683154        2.4756857818
HD2         9.4443992870       17.3657573201        2.7346528435
C          13.3643373633       18.8767931662        0.7885348933
O          14.4367732593       18.5170235298        0.2925262175
N          13.2128581705       20.0741172804        1.3682314066
H          12.3075531881       20.2924547470        1.7623992475
CH3        14.2611881449       21.0899706578        1.4707250370
HH31       13.8757408877       21.9768631530        1.9772833446
HH32       14.6064350599       21.3750359112        0.4747426769
HH33       15.1079694350       20.6995488091        2.0389606139
         110
Energy of minimum      2=    -153.3189191     first found at step        0 after                44070 function calls
HH31       -0.2478596086        2.4321876378        0.9647704976
CH3         0.2510423218        1.9792545417        0.1093141356
HH32        0.2384344684        0.8950736780        0.2111193164
HH33       -0.2648040006        2.2660209009       -0.8058567485
C           1.6801948443        2.4651510214        0.0497875857
O           2.6083669091        1.6610443349        0.1184376539
N           1.8556484866        3.7789840189       -0.0768606557
H           1.0311288170        4.3620205997       -0.1097249825
CA          3.1564170215        4.4581721325       -0.1416133024
HA          3.8975219749        3.8628222109        0.3944812028
CB          3.5982271169        4.5698191576       -1.6126576213
HB2         2.8145967551        5.0761898403       -2.1790673211
HB3         3.7018945376        3.5656484710       -2.0267714137
CG          4.9082834691        5.3122418879       -1.8158989713
CD1         4.9004347587        6.6616001415       -2.2253950616
HD1         3.9616217621        7.1626610906       -2.4286146851
CE1         6.1122498121        7.3675498707       -2.3573717718
HE1         6.1119762499        8.4034940351       -2.6667841939
CZ          7.3380291756        6.7245944778       -2.0830255379
OH          8.5048728032        7.4103114212       -2.2109321551
HH          9.2658498761        6.8531554125       -2.0035264204
CE2         7.3463412276        5.3706827730       -1.6810582887
HE2         8.2848442487        4.8757311981       -1.4718468915
CD2         6.1320675567        4.6681340553       -1.5462321178
HD2         6.1406429661        3.6319371078       -1.2294330778
C           3.1060646975        5.8476197669        0.5199852153
O           2.0697738147        6.5192428388        0.4988687174
N           4.2383505122        6.2936092682        1.0720021570
H           5.0494423605        5.6913400775        1.0376668497
CA          4.4653407182        7.6617901377        1.5491344868
HA          3.8360223689        8.3451675244        0.9763337578
CB          4.0713138397        7.7696132845        3.0309425417
HB2         3.0302338025        7.4626714796        3.1428546503
HB3         4.6805869986        7.0759180263        3.6129043374
CG          4.2197334525        9.1675618957        3.6041339587
CD1         3.2540739692       10.1513794901        3.3123801509
HD1         2.3967045430        9.9031000200        2.6979554785
CE1         3.4007135835       11.4590960453        3.8162221150
HE1         2.6588435265       12.2132034981        3.5910912199
CZ          4.5185910085       11.7860606238        4.6147770363
OH          4.6681508117       13.0460814776        5.1028184358
HH          3.9400079196       13.6190801624        4.8296801391
CE2         5.4847626431       10.7997006922        4.9071528902
HE2         6.3390742343       11.0559002945        5.5186087325
CD2         5.3349147363        9.4929771184        4.4024557800
HD2         6.0823388961        8.7409489755        4.6252878724
C           5.9325577744        8.0741529392        1.3322175362
O           6.8440878876        7.2581965172        1.5010378729
N           6.1663480079        9.3390037567        0.9737588869
H           5.3798055885        9.9659916082        0.8713199174
CA          7.4973261493        9.8993701934        0.7183679087
HA2         8.0909201064        9.8510541901        1.6318576374
HA3         8.0008624268        9.3058438242       -0.0454436847
C           7.4555217414       11.3571702972        0.2454642956
O           6.3799604041       11.9419402175        0.0811161149
N           8.6299885818       11.9502011115        0.0235087707
H           9.4747745145       11.4150509961        0.1761527623
CA          8.7935599042       13.3360862149       -0.4315597929
HA2         8.2888098402       13.4649255006       -1.3896566325
HA3         8.3300616621       14.0113208837        0.2885288037
C          10.2613217859       13.7465309177       -0.6014539025
O          11.1738185158       12.9502960628       -0.3585454229
N          10.4900915265       14.9934959292       -1.0199429418
H           9.6924454190       15.5928250981       -1.1830087833
CA         11.8178335099       15.5857792267       -1.2334146780
HA         12.5372696517       15.0969647520       -0.5740746853
CB         12.2511950783       15.3406465400       -2.6893521028
HB2        12.2538087758       14.2661395377       -2.8795155954
HB3        11.5128904751       15.7870533346       -3.3578520000
CG         13.6256506428       15.8868163719       -3.0335886377
CD1        14.7804740505       15.2043162212       -2.6029362813
HD1        14.6882023198       14.2795621127       -2.0458197199
CE1        16.0573382859       15.7224376149       -2.8964242397
HE1        16.9475316332       15.2023829786       -2.5702042927
CZ         16.1829172887       16.9274309137       -3.6207281108
OH         17.4172939810       17.4197242001       -3.9077548747
HH         17.3616299506       18.2402963908       -4.4138387069
CE2        15.0252481904       17.6111710548       -4.0524769497
HE2        15.1187465981       18.5336580909       -4.6090602404
CD2        13.7497211134       17.0897710852       -3.7584858864
HD2        12.8637530986       17.6190611018       -4.0883422985
C          11.8248941672       17.0892857997       -0.9005458724
O          10.8073683285       17.7716387774       -1.0573711453
N          12.9737735119       17.6096419396       -0.4584338136
H          13.7749293089       16.9977486751       -0.3833246790
CA         13.2095937354       19.0327945912       -0.1862805950
HA         12.5920341807       19.6286945918       -0.8604592224
CB         12.7965664063       19.3516836730        1.2607709001
HB2        11.7613245965       19.0403153232        1.4088960992
HB3        13.4130939076       18.7643108660        1.9434341315
CG         12.9016104041       20.8209370371        1.6287765003
CD1        13.9697599399       21.2797294399        2.4261225093
HD1        14.7150824284       20.5822331062        2.7893019575
CE1        14.0754126586       22.6471507942        2.7495063749
HE1        14.8961912790       22.9977906135        3.3602838760
CZ         13.1094868107       23.5611210724        2.2743977039
OH         13.2051144378       24.8820127004        2.5816162560
HH         13.9791108468       25.0613754009        3.1311193924
CE2        12.0400583887       23.1004187936        1.4767894817
HE2        11.3026914698       23.8046758352        1.1164780043
CD2        11.9372302753       21.7326202009        1.1552672204
HD2        11.1141776843       21.3823649698        0.5436366307
C          14.6823475663       19.4076513953       -0.4384236832
O          15.5824212987       18.5895148608       -0.2225090431
N          14.9334610229       20.6470255209       -0.8785423880
H          14.1452349827       21.2673730079       -1.0041729812
CH3        16.2670798177       21.1784122336       -1.1598032035
HH31       16.7728848066       20.5523459955       -1.8975709965
HH32       16.1905512719       22.1942869992       -1.5517577425
HH33       16.8625790208       21.1973513799       -0.2448936709
         110
Energy of minimum      3=    -153.3086854     first found at step        0 after                 1357 function calls
HH31        0.0279329493        1.8768408722        0.7327671379
CH3         0.6054104045        1.4262458383       -0.0730499890
HH32        0.6449027206        0.3467755710        0.0653531995
HH33        0.1356439987        1.6548580419       -1.0285217420
C           2.0069907712        1.9896988454       -0.0586031913
O           2.9708748129        1.2416268669        0.0967053598
N           2.1189435808        3.3067346624       -0.2194249683
H           1.2679720336        3.8411435266       -0.3247825628
CA          3.3824775053        4.0556925512       -0.2250614628
HA          4.1181626941        3.5199805710        0.3773129318
CB          3.9126511705        4.1461478661       -1.6681000026
HB2         3.1414155814        4.5898047221       -2.3002964251
HB3         4.0972516160        3.1369835727       -2.0397265602
CG          5.1911220844        4.9543121354       -1.8134965922
CD1         5.1370709979        6.2877065760       -2.2691890798
HD1         4.1877868217        6.7287078911       -2.5486683133
CE1         6.3150068584        7.0561031606       -2.3486520332
HE1         6.2789171872        8.0802525779       -2.6932210485
CZ          7.5532727976        6.4918010753       -1.9752239385
OH          8.6872394739        7.2375794165       -2.0528371282
HH          9.4621064498        6.7306777822       -1.7786919677
CE2         7.6085135105        5.1536796531       -1.5267837519
HE2         8.5567746553        4.7189270531       -1.2416063783
CD2         6.4277589795        4.3886285448       -1.4447511729
HD2         6.4716559076        3.3649056661       -1.0923251862
C           3.2138836670        5.4600418475        0.3833596974
O           2.1463546531        6.0713179888        0.2731743051
N           4.2818984584        5.9860021897        0.9903268259
H           5.1248479934        5.4294613432        1.0286345361
CA          4.4028191667        7.3789736599        1.4331619335
HA          3.7758063757        8.0076891477        0.7985608549
CB          3.9082391105        7.5102737457        2.8825405050
HB2         2.8806173235        7.1478303612        2.9392549558
HB3         4.5157520909        6.8710410282        3.5255160372
CG          3.9418151588        8.9315473666        3.4151615911
CD1         2.9417741739        9.8475147527        3.0329931916
HD1         2.1391976937        9.5317804105        2.3770338641
CE1         2.9839441566       11.1755127986        3.5014447467
HE1         2.2193540323       11.8831016059        3.2113397376
CZ          4.0288965303       11.5921149389        4.3538448072
OH          4.0664798099       12.8749923569        4.8022130242
HH          4.8290610671       13.0263565904        5.3755030865
CE2         5.0307758667       10.6737407743        4.7371377487
HE2         5.8327948074       10.9907067655        5.3897988962
CD2         4.9853354928        9.3460435542        4.2675012288
HD2         5.7585681520        8.6454833033        4.5595957382
C           5.8565202174        7.8662065444        1.2950453649
O           6.7978879182        7.1095096365        1.5527452117
N           6.0444334962        9.1290972427        0.9041753673
H           5.2335144835        9.7065477034        0.7274786521
CA          7.3570647037        9.7542069333        0.7117669753
HA2         7.8891535085        9.7772052946        1.6633380955
HA3         7.9428674112        9.1600487960        0.0096019462
C           7.2679751593       11.1867489827        0.1728484902
O           6.1754659779       11.7034725898       -0.0824824607
N           8.4210180954       11.8346314656       -0.0033964139
H           9.2816595624       11.3540854863        0.2240230414
CA          8.5393257262       13.2074314739       -0.5093136426
HA2         8.0896727055       13.2682181187       -1.5010003956
HA3         7.9964260038       13.8851336764        0.1504416121
C           9.9910953584       13.6913930728       -0.6083224401
O          10.9273016166       12.9582004881       -0.2742686543
N          10.1794986784       14.9303095537       -1.0687360142
H           9.3631319902       15.4768583401       -1.3071839371
CA         11.4848560855       15.5859799143       -1.2281409546
HA         12.1861428558       15.1663368666       -0.5047095635
CB         12.0215152780       15.3038598732       -2.6423739451
HB2        12.0929686677       14.2240709530       -2.7826758493
HB3        11.3042405322       15.6797554568       -3.3741420313
CG         13.3841084089       15.9105870285       -2.9272439865
CD1        14.5439770367       15.3122863280       -2.3965593760
HD1        14.4658298308       14.4082820109       -1.8043333817
CE1        15.8075938518       15.8877554093       -2.6354635284
HE1        16.7017192049       15.4323467234       -2.2323963657
CZ         15.9146474207       17.0660752997       -3.4052017881
OH         17.1368807598       17.6136870325       -3.6390600271
HH         17.0698922508       18.4076889601       -4.1846162568
CE2        14.7519464049       17.6654076532       -3.9372094539
HE2        14.8314031044       18.5672385020       -4.5287305406
CD2        13.4898039523       17.0867642608       -3.6975720388
HD2        12.5996311578       17.5514653489       -4.1044358926
C          11.3913524317       17.1003052326       -0.9645831386
O          10.3510379566       17.7177088756       -1.2138113116
N          12.4809516131       17.7020676413       -0.4779481447
H          13.3070492713       17.1394473109       -0.3265338816
CA         12.6235229115       19.1463992708       -0.2574443661
HA         12.0190084581       19.6778769705       -0.9943892407
CB         12.1038484933       19.5029160331        1.1457921547
HB2        11.0792588996       19.1409903519        1.2450026904
HB3        12.7063523724       18.9802533549        1.8907449553
CG         12.1076099820       20.9900266269        1.4518237598
CD1        13.0976710166       21.5409728129        2.2905325265
HD1        13.8545274868       20.9020782925        2.7297223245
CE1        13.1102372753       22.9246421431        2.5567698374
HE1        13.8712338602       23.3460186777        3.1994213871
CZ         12.1291141414       23.7624538739        1.9827037802
OH         12.1351694109       25.0984637072        2.2343454017
HH         12.8624656326       25.3437817857        2.8209067372
CE2        11.1378960800       23.2095198835        1.1437441904
HE2        10.3884319985       23.8557238612        0.7075827530
CD2        11.1280484460       21.8257108144        0.8795500678
HD2        10.3648213206       21.4045575973        0.2358877685
C          14.0873381674       19.5915827883       -0.4367539111
O          15.0140371929       18.8347149688       -0.1293784039
N          14.2997624250       20.8231916914       -0.9171971062
H          13.4893051076       21.3928132499       -1.1187034073
CH3        15.6184687670       21.4155396138       -1.1411526389
HH31       16.2021939135       20.7878032453       -1.8174003543
HH32       15.5131530851       22.4080023295       -1.5832081045
HH33       16.1532707442       21.5064600559       -0.1936519277
         110
Energy of minimum      4=    -153.1158797     first found at step      144 after                99764 function calls
HH31       -0.7534123221        1.2493260674        2.4021102172
CH3        -0.6803862225        2.2278755551        1.9297975895
HH32       -1.2309523219        2.2217709652        0.9902712761
HH33       -1.0990448719        2.9848157520        2.5913285071
C           0.7698388096        2.5505684516        1.6562476808
O           1.6493805251        1.7492857588        1.9679428592
N           1.0177301091        3.7227759339        1.0753342790
H           0.2300101093        4.3213567887        0.8703003648
CA          2.3515830118        4.2344810858        0.7340734356
HA          3.0852940846        3.8038178278        1.4176482171
CB          2.7114279305        3.7987087374       -0.6985388716
HB2         2.7319331226        2.7085801058       -0.7408464775
HB3         1.9265465274        4.1361953304       -1.3777854479
CG          4.0480300135        4.3255715022       -1.1931057804
CD1         5.2462428890        3.7241599794       -0.7597085637
HD1         5.2134870176        2.8620315233       -0.1041207038
CE1         6.4890947922        4.2460990396       -1.1709712632
HE1         7.4081001395        3.7851012540       -0.8356616710
CZ          6.5354683522        5.3770786753       -2.0156875249
OH          7.7304661955        5.8897098461       -2.4123074565
HH          8.4689158174        5.3840371612       -2.0496600362
CE2         5.3348835533        5.9754245792       -2.4536350968
HE2         5.3763582982        6.8397159616       -3.1019030718
CD2         4.0941380290        5.4491066664       -2.0440239553
HD2         3.1755379983        5.9182792013       -2.3753562554
C           2.4260928653        5.7661269915        0.8733534656
O           1.4342185750        6.4685766150        0.6538796959
N           3.6139655962        6.2845595588        1.1987403075
H           4.3827079194        5.6455971062        1.3488400062
CA          3.9537518683        7.7106401991        1.1590058022
HA          3.3424713919        8.1977533228        0.3973167005
CB          3.6397605293        8.3632879281        2.5163410043
HB2         2.5695919141        8.2797969041        2.7115554810
HB3         4.1615051618        7.8150549656        3.3026713443
CG          4.0319110084        9.8283190850        2.5877379966
CD1         3.2766152379       10.7946748989        1.8935451815
HD1         2.3839933149       10.5001167749        1.3544984783
CE1         3.6922686894       12.1412158424        1.8794037458
HE1         3.1208460434       12.8790891486        1.3328685850
CZ          4.8679235779       12.5232964796        2.5621250592
OH          5.3021680671       13.8118510739        2.5167492137
HH          4.6840956637       14.3715973536        2.0283526076
CE2         5.6093683481       11.5585912043        3.2767932185
HE2         6.5072908851       11.8552432244        3.8009127730
CD2         5.1928927535       10.2137300455        3.2872791082
HD2         5.7804999885        9.4733566609        3.8166292262
C           5.4314428972        7.9118808791        0.7713660752
O           6.2980951015        7.1237552655        1.1621070022
N           5.7211075174        8.9790261338        0.0225691049
H           4.9658573082        9.5953052846       -0.2456632994
CA          7.0668000818        9.3666348833       -0.4119124469
HA2         7.6987636169        9.5175921638        0.4640162299
HA3         7.5019364845        8.5688897235       -1.0147246146
C           7.0673673324       10.6575323422       -1.2402576140
O           6.0072006868       11.1608734267       -1.6263875224
N           8.2542480653       11.2006656304       -1.5180456779
H           9.0879542239       10.7400581210       -1.1787146465
CA          8.4359716644       12.4479376810       -2.2700629219
HA2         8.1358376952       12.2966302137       -3.3073585171
HA3         7.7940438778       13.2191170223       -1.8419639326
C           9.8799912975       12.9619104232       -2.2564999551
O          10.8091626315       12.2245814290       -1.9130679036
N          10.0554004419       14.2364800075       -2.6145555864
H           9.2343415193       14.7729282906       -2.8554972995
CA         11.3339868980       14.9619356782       -2.5963783447
HA         12.1060805469       14.3185803153       -2.1716685644
CB         11.7601880629       15.3214943912       -4.0286758460
HB2        11.0075558218       15.9782956809       -4.4682953393
HB3        12.6929825542       15.8858714088       -3.9832729085
CG         11.9725565743       14.1250786545       -4.9409722919
CD1        13.1799528891       13.4004142632       -4.8814613189
HD1        13.9572332124       13.6994293930       -4.1886361861
CE1        13.3793042025       12.2850675228       -5.7194580864
HE1        14.3061132690       11.7297288348       -5.6714865551
CZ         12.3669257240       11.8908589717       -6.6216206626
OH         12.5512298347       10.8151189211       -7.4323301894
HH         13.4169787138       10.4106691617       -7.2906549183
CE2        11.1587420771       12.6178960416       -6.6822582237
HE2        10.3872324807       12.3118910505       -7.3754658952
CD2        10.9632044036       13.7331220494       -5.8437700924
HD2        10.0337749777       14.2873181015       -5.8924114699
C          11.2376548606       16.2138489015       -1.7086533489
O          10.1840548969       16.8556990007       -1.6441991023
N          12.3316781884       16.5606921825       -1.0227248885
H          13.1811705051       16.0376324483       -1.1791764407
CA         12.3530400906       17.5495019296        0.0669635774
HA         11.4786305082       18.1967478860       -0.0173826037
CB         12.2731350301       16.8169894402        1.4211650123
HB2        13.2192542783       16.3017667158        1.5963593966
HB3        12.1578024331       17.5564986528        2.2150887473
CG         11.1419476581       15.8053081775        1.5323527370
CD1        11.3932284644       14.4405547941        1.2818755499
HD1        12.3953565423       14.1082724960        1.0407064270
CE1        10.3395896361       13.5076825583        1.3225121430
HE1        10.5258632407       12.4626728627        1.1180161550
CZ          9.0296594265       13.9344209814        1.6242147502
OH          8.0187777915       13.0280436117        1.6527638211
HH          7.1765102275       13.4321632570        1.9093555123
CE2         8.7786737955       15.2978080223        1.8928834843
HE2         7.7748201413       15.6254732128        2.1261080726
CD2         9.8345017033       16.2309700746        1.8427524213
HD2         9.6374034223       17.2792805602        2.0310787627
C          13.6000157667       18.4505250892        0.0098185811
O          14.6341397235       18.0648764422       -0.5459600321
N          13.5141619610       19.6477926729        0.6029567613
H          12.6366277056       19.8902548754        1.0431350751
CH3        14.5973873975       20.6300028244        0.6611348308
HH31       15.4608302833       20.2065701848        1.1784150693
HH32       14.2670965583       21.5211265770        1.1983320594
HH33       14.8977068579       20.9182310603       -0.3483947371
         110
Energy of minimum      5=    -152.9588522     first found at step        0 after                  645 function calls
HH31       -0.2594601606        2.3812581709        0.9794675509
CH3         0.3358313126        1.7505490905        0.3209157925
HH32        0.3025154795        0.7206474892        0.6732842402
HH33       -0.0631058130        1.8032757115       -0.6909824372
C           1.7654214563        2.2387876743        0.3197614787
O           2.6721156778        1.4930439021        0.6865859551
N           1.9651709399        3.4894463478       -0.0912777983
H           1.1552444468        4.0309879859       -0.3588560249
CA          3.2693727358        4.1619676780       -0.1581682298
HA          3.9356720670        3.7230839294        0.5864531022
CB          3.8846271850        3.9357702783       -1.5506494866