         110
Energy of minimum      1=    -158.3999651     first found at step      145 after               101369 function calls
HH31        7.8444418301       10.7875967435        7.7877078570
CH3         7.2096668467        9.9057145432        7.8598524822
HH32        7.3481312865        9.4347145741        8.8319410912
HH33        6.1673075687       10.1975765235        7.7408256663
C           7.5828515780        8.9309317413        6.7677398579
O           7.9737546119        7.8011076598        7.0567109685
N           7.4631478719        9.3679913744        5.5156761080
H           7.1455867637       10.3170976533        5.3781636856
CA          7.7799176139        8.5878768477        4.3122359058
HA          8.5398893417        7.8437517481        4.5567890100
CB          6.5147415038        7.8495257963        3.8381180968
HB2         6.2033086771        7.1490443001        4.6146006851
HB3         5.7090599413        8.5750535622        3.7121089848
CG          6.6905471687        7.0840326429        2.5375079780
CD1         6.2387222137        7.6410130952        1.3233551630
HD1         5.7362405008        8.6007696194        1.3192201486
CE1         6.4499538950        6.9574360175        0.1100358480
HE1         6.1085283645        7.3810249021       -0.8242233986
CZ          7.1128032396        5.7117042949        0.1071516848
OH          7.3144318283        5.0557914809       -1.0663545322
HH          7.7703695345        4.2159750338       -0.9271633022
CE2         7.5589102094        5.1505507623        1.3240538660
HE2         8.0657245997        4.1952204082        1.3239087556
CD2         7.3488185252        5.8383121091        2.5360954353
HD2         7.6987747216        5.4093023857        3.4675339362
C           8.3407777194        9.4784112608        3.1895288933
O           7.9314985301       10.6350973697        3.0371088967
N           9.2415575611        8.9260866288        2.3703259267
H           9.5185108646        7.9688502267        2.5390057897
CA          9.7197257001        9.5454244399        1.1311340329
HA          8.9848992693       10.2842422596        0.8130835642
CB         11.0450063148       10.2853302189        1.3791536757
HB2        11.0080365667       10.7584520014        2.3620572931
HB3        11.8676360065        9.5686178540        1.3967332947
CG         11.3302600391       11.3662632575        0.3517123076
CD1        11.9707930421       11.0552157888       -0.8647001697
HD1        12.2960321209       10.0416465965       -1.0651312817
CE1        12.1831605179       12.0629026885       -1.8271377828
HE1        12.6673777827       11.8302787031       -2.7656918321
CZ         11.7589866774       13.3847309137       -1.5719593429
OH         11.9572183602       14.3536068865       -2.5015213896
HH         11.5924837297       15.2084317147       -2.2112524206
CE2        11.1248611391       13.6971034421       -0.3523593356
HE2        10.7912942282       14.7065054796       -0.1573354977
CD2        10.9181173895       12.6884873011        0.6070362183
HD2        10.4297693979       12.9302123656        1.5417407455
C           9.8484595667        8.5066187426        0.0047445951
O          10.3359031427        7.3940707799        0.2230467619
N           9.4323562362        8.8819714447       -1.2053184337
H           9.0541260393        9.8131277722       -1.3129008354
CA          9.4869184956        8.0613162551       -2.4183418031
HA2        10.4874114521        7.6413260401       -2.5294456503
HA3         8.7720404697        7.2411990004       -2.3482924397
C           9.1572854823        8.8971484640       -3.6580546907
O           8.4338355266        9.8939899969       -3.5611927645
N           9.7176516140        8.5363871244       -4.8161443213
H          10.2972280338        7.7091334867       -4.8334961524
CA          9.6974978182        9.3916959966       -6.0096931024
HA2        10.1834810667        8.8807286596       -6.8409350971
HA3         8.6652570603        9.6013992325       -6.2931730280
C          10.4369333651       10.7100015437       -5.7487004873
O          11.6088034972       10.6986595081       -5.3614081867
N           9.7489277970       11.8421355926       -5.9139078857
H           8.7934274698       11.7762874683       -6.2364494643
CA         10.2170884082       13.1588428733       -5.4685975311
HA         10.9065638563       13.0240462899       -4.6341617414
CB         10.9827716709       13.8566225433       -6.6045285597
HB2        11.8413721484       13.2433146251       -6.8819237552
HB3        10.3345000426       13.9290219245       -7.4794594971
CG         11.4762369505       15.2455855808       -6.2385028443
CD1        12.6569389223       15.3964599767       -5.4855821497
HD1        13.2273404114       14.5232897943       -5.1928698446
CE1        13.0885472315       16.6790184759       -5.0934672929
HE1        13.9923929788       16.7915242743       -4.5105863688
CZ         12.3355598225       17.8174708216       -5.4547237632
OH         12.7435615144       19.0579657432       -5.0772631305
HH         13.5654726437       19.0209228781       -4.5715396553
CE2        11.1552035515       17.6663381962       -6.2133251730
HE2        10.5834145723       18.5419335997       -6.4882500929
CD2        10.7278294089       16.3825724966       -6.6053333239
HD2         9.8159676321       16.2707915779       -7.1797175039
C           9.0576471949       14.0409764818       -4.9778056401
O           8.0057596602       14.1137557298       -5.6192552986
N           9.2824289243       14.7561148972       -3.8736462972
H          10.1693669164       14.6172006096       -3.4077528313
CA          8.5054091396       15.9262196771       -3.4491972735
HA          8.1518166987       16.4348293197       -4.3480236875
CB          7.2604929747       15.5089702756       -2.6410448725
HB2         6.6262057867       16.3889676179       -2.5243389088
HB3         6.6841618664       14.7973032647       -3.2338369737
CG          7.4905326143       14.9185154013       -1.2571232630
CD1         7.4194504610       13.5242104710       -1.0572720032
HD1         7.2523584237       12.8657722842       -1.9008651892
CE1         7.5361637236       12.9856917436        0.2412047343
HE1         7.4581259742       11.9204068565        0.3957444613
CZ          7.7409464468       13.8417896331        1.3455033708
OH          7.8625858987       13.3412428541        2.6043228233
HH          7.8197228771       12.3681353469        2.6316965805
CE2         7.8198082966       15.2355274434        1.1438374504
HE2         7.9702510390       15.8877978832        1.9929490698
CD2         7.6855886782       15.7715784293       -0.1514119457
HD2         7.7180953316       16.8447837653       -0.2907374562
C           9.3879837543       16.9328782728       -2.6849268613
O          10.4371873472       16.5681428711       -2.1403864575
N           8.9646143670       18.2018417704       -2.6411403724
H           8.0973452289       18.4261070570       -3.1101679431
CH3         9.6755057083       19.2925613577       -1.9736198370
HH31        9.1026840648       20.2182902332       -2.0543228150
HH32        9.8186002730       19.0572770988       -0.9170176538
HH33       10.6527265541       19.4411169403       -2.4377325905
         110
Energy of minimum      2=    -158.3283153     first found at step      138 after                97289 function calls
HH31        8.3519531203       10.8113676379        7.9172759689
CH3         7.7250695683        9.9298172922        8.0427607919
HH32        7.9270806949        9.4728784053        9.0104218760
HH33        6.6765706432       10.2186650414        7.9872578197
C           8.0289969889        8.9400458675        6.9426886500
O           8.4401951402        7.8149365241        7.2217172985
N           7.8276826923        9.3590828289        5.6949331269
H           7.4998359803       10.3057370479        5.5648402890
CA          8.0676875006        8.5623016084        4.4846773503
HA          8.8435135984        7.8227016363        4.6900346820
CB          6.7761231756        7.8156759419        4.1038574490
HB2         6.5173342632        7.1255814694        4.9084612311
HB3         5.9622960448        8.5382564497        4.0204602407
CG          6.8689103778        7.0325300035        2.8051861452
CD1         6.3381011910        7.5721335733        1.6153923977
HD1         5.8343616322        8.5311176210        1.6307267050
CE1         6.4716342454        6.8721282846        0.4004039457
HE1         6.0694176832        7.2823508534       -0.5154437148
CZ          7.1355635615        5.6273027197        0.3715796124
OH          7.2620393939        4.9555025886       -0.8034446022
HH          7.7278829268        4.1182782811       -0.6826533731
CE2         7.6608614994        5.0835584735        1.5645441951
HE2         8.1686385944        4.1289481193        1.5445981942
CD2         7.5283599165        5.7877263449        2.7781313632
HD2         7.9389032170        5.3720514095        3.6906904263
C           8.5527850755        9.4374891871        3.3155805800
O           8.1311559581       10.5909966432        3.1730148953
N           9.4007183074        8.8751113899        2.4482307665
H           9.6907288528        7.9209628199        2.6123765036
CA          9.7964974656        9.4777379321        1.1723171097
HA          9.0417741349       10.2121333947        0.8930640199
CB         11.1342217269       10.2213272074        1.3232911322
HB2        11.1607437179       10.7080671727        2.2998624971
HB3        11.9570850435        9.5051445605        1.2971508980
CG         11.3505610953       11.2879106378        0.2645028881
CD1        11.9112556440       10.9601653463       -0.9864693738
HD1        12.2243139736        9.9440658189       -1.1933755792
CE1        12.0591214725       11.9542928537       -1.9747507797
HE1        12.4816936714       11.7087308096       -2.9394256462
CZ         11.6505543986       13.2793705508       -1.7110965607
OH         11.7868840135       14.2353697128       -2.6649020804
HH         11.4419779466       15.0941584916       -2.3622223804
CE2        11.0964730632       13.6084523826       -0.4573330495
HE2        10.7747969232       14.6202990394       -0.2551685196
CD2        10.9536837653       12.6133127311        0.5274562136
HD2        10.5262985390       12.8678894099        1.4882863573
C           9.8523265815        8.4242136732        0.0537292961
O          10.3544813139        7.3148274614        0.2539859855
N           9.3570929502        8.7837094717       -1.1310492587
H           8.9716446310        9.7133258845       -1.2254900625
CA          9.3326319260        7.9477608486       -2.3344819526
HA2        10.3241731828        7.5269056248       -2.5060849639
HA3         8.6249546917        7.1282899879       -2.2071558393
C           8.9208527874        8.7679810704       -3.5599530231
O           8.2044690190        9.7659004940       -3.4279020396
N           9.4036177885        8.3927906225       -4.7479594749
H           9.9816551357        7.5655250394       -4.7933508665
CA          9.3033401142        9.2330313247       -5.9480820237
HA2         9.7324714673        8.7112547497       -6.8035497128
HA3         8.2543543827        9.4397665189       -6.1642978547
C          10.0582921063       10.5541691499       -5.7543321087
O          11.2527507365       10.5471665074       -5.4434885422
N           9.3615318056       11.6846022215       -5.8922235594
H           8.3870836509       11.6151641662       -6.1509900367
CA          9.8601109341       13.0085666648       -5.5051727110
HA         10.6041053097       12.8886216098       -4.7165559966
CB         10.5481375442       13.6809536679       -6.7041847160
HB2        11.3923717033       13.0656190302       -7.0186701389
HB3         9.8458794601       13.7257242029       -7.5383556064
CG         11.0531586682       15.0822399865       -6.4076566568
CD1        10.2905218161       16.2052487562       -6.7882965914
HD1         9.3567772908       16.0715059515       -7.3215106744
CE1        10.7327200303       17.5038628255       -6.4670828521
HE1        10.1457992859       18.3641531346       -6.7587072471
CZ         11.9430528148       17.6820118846       -5.7619880865
OH         12.3763019267       18.9317951897       -5.4485489316
HH         11.7685884875       19.6086308080       -5.7727913616
CE2        12.7071270902       16.5572878804       -5.3843442097
HE2        13.6319482146       16.6991351601       -4.8425208931
CD2        12.2621079102       15.2604737957       -5.7076602230
HD2        12.8447430819       14.3992489090       -5.4041139769
C           8.7373291757       13.9031132788       -4.9551733675
O           7.6475387202       13.9720846151       -5.5303482304
N           9.0330521362       14.6305808125       -3.8759941450
H           9.9468866072       14.4939885443       -3.4645672687
CA          8.2834320707       15.8037300459       -3.4122915906
HA          7.8744265152       16.3061269900       -4.2908798108
CB          7.0916774743       15.3918017513       -2.5248965438
HB2         6.4624418977       16.2711979493       -2.3797642419
HB3         6.4827194749       14.6714951109       -3.0729317012
CG          7.4081513757       14.8187002136       -1.1506923815
CD1         7.3576108718       13.4265176516       -0.9307490825
HD1         7.1436283169       12.7572002156       -1.7549705633
CE1         7.5561246053       12.9041413416        0.3644472623
HE1         7.4938778249       11.8404130499        0.5357420103
CZ          7.8227603296       13.7743626469        1.4442760039
OH          8.0235603844       13.2899312973        2.6992902938
HH          7.9871780754       12.3171575572        2.7418094524
CE2         7.8807798805       15.1659646457        1.2220332867
HE2         8.0786052676       15.8291165170        2.0528029508
CD2         7.6647113069       15.6858155061       -0.0687072603
HD2         7.6821213951       16.7574518026       -0.2220080956
C           9.2109870696       16.8152506187       -2.7102152293
O          10.2927342434       16.4544194192       -2.2308052288
N           8.7896322272       18.0839997772       -2.6456882690
H           7.8945259286       18.3054071188       -3.0607312916
CH3         9.5364174998       19.1767396947       -2.0219614224
HH31        8.9771265978       20.1102536568       -2.1079025657
HH32        9.7036058621       18.9617475900       -0.9645925923
HH33       10.5035703128       19.2984286418       -2.5141411026
         110
Energy of minimum      3=    -158.0665907     first found at step      151 after               104792 function calls
HH31        8.7769486570        9.6612960597        8.2745467253
CH3         8.0215303645        8.8773401736        8.2498814816
HH32        8.1790705632        8.1921315762        9.0815323318
HH33        7.0314991500        9.3241839707        8.3275702608
C           8.1274306695        8.1225548334        6.9455686449
O           8.3628941003        6.9153497754        6.9489896451
N           7.9545983847        8.8330670959        5.8327834923
H           7.7795699705        9.8233827374        5.9300412455
CA          8.0264585974        8.2987793930        4.4665061552
HA          8.6881074774        7.4308815145        4.4552969113
CB          6.6230691607        7.8437060651        4.0238285434
HB2         6.2826071154        7.0505484047        4.6913639987
HB3         5.9299266080        8.6798785402        4.1320667640
CG          6.5546713395        7.3349085170        2.5933802983
CD1         6.1272681094        8.1914287862        1.5575557450
HD1         5.8172651789        9.2047506536        1.7828958019
CE1         6.1210165156        7.7396918423        0.2234343025
HE1         5.7999492961        8.3940312560       -0.5750179707
CZ          6.5384676938        6.4262699005       -0.0794391748
OH          6.5315282543        5.9946042655       -1.3684484154
HH          6.8291268612        5.0783688268       -1.4351752540
CE2         6.9585530523        5.5657520978        0.9586809874
HE2         7.2782750283        4.5586183194        0.7285345149
CD2         6.9684594340        6.0223078366        2.2919646457
HD2         7.3007614028        5.3633844543        3.0853732410
C           8.5934976986        9.3342593308        3.4788359932
O           8.3771258580       10.5397569065        3.6375649161
N           9.2777990248        8.8560047635        2.4348659863
H           9.4138384528        7.8558510487        2.3779931671
CA          9.6133813662        9.6201729058        1.2288204142
HA          8.8253855834       10.3526109862        1.0540829246
CB         10.9387301289       10.3732042577        1.4269511229
HB2        10.9468322156       10.8229640315        2.4209842202
HB3        11.7675087246        9.6644706742        1.3864244220
CG         11.1648604042       11.4844623148        0.4179151103
CD1        11.9631401924       11.2691421164       -0.7234820833
HD1        12.4294039660       10.3052825778       -0.8878512341
CE1        12.1587179756       12.3102099078       -1.6530880597
HE1        12.7705921575       12.1529565553       -2.5306469843
CZ         11.5624653782       13.5711728131       -1.4379036264
OH         11.7746602142       14.5825471454       -2.3182043287
HH         11.3266559697       15.3993562132       -2.0334603140
CE2        10.7566548998       13.7836511061       -0.3003091807
HE2        10.2898296746       14.7453465550       -0.1401657066
CD2        10.5597477749       12.7397098402        0.6235862688
HD2         9.9397591458       12.9027900244        1.4961513287
C           9.6770406283        8.6913715083        0.0029158897
O          10.0177365745        7.5112121188        0.1299362701
N           9.3747352803        9.2168158362       -1.1860256055
H           9.1351811479       10.1978750180       -1.2324282691
CA          9.4002610853        8.4741728198       -2.4515870919
HA2        10.3537435108        7.9523569543       -2.5428337720
HA3         8.6025496649        7.7311642792       -2.4600245578
C           9.2243051670        9.3889333231       -3.6666614274
O           8.6135533706       10.4560144897       -3.5612541047
N           9.7804394157        8.9970172197       -4.8174154971
H          10.2636383584        8.1101712313       -4.8388123363
CA          9.8656979535        9.8575624285       -6.0053475846
HA2        10.3410270450        9.3157865505       -6.8231408260
HA3         8.8603056609       10.1385188500       -6.3217042610
C          10.6828250765       11.1249569573       -5.7220673992
O          11.7690662938       11.0489258157       -5.1401291062
N          10.1501197151       12.2924815213       -6.0908677888
H           9.2682782094       12.2813829499       -6.5842459438
CA         10.6513685459       13.5938651009       -5.6372081221
HA         11.1724308187       13.4540091398       -4.6892052697
CB         11.6637521343       14.1598547573       -6.6432207880
HB2        12.4891243249       13.4546021918       -6.7510631875
HB3        11.1834318913       14.2582242412       -7.6181330138
CG         12.2290818036       15.5050361657       -6.2239495351
CD1        13.2055714153       15.5701855744       -5.2105981028
HD1        13.5707734853       14.6595191527       -4.7514065854
CE1        13.6981367239       16.8179526876       -4.7802684861
HE1        14.4448159791       16.8655855594       -3.9994581786
CZ         13.2112051794       18.0075662262       -5.3645338665
OH         13.6784339228       19.2156918657       -4.9520969454
HH         14.3419251054       19.1190024754       -4.2568030468
CE2        12.2332927137       17.9415450130       -6.3799805712
HE2        11.8626645737       18.8559571065       -6.8225217554
CD2        11.7430614722       16.6921045100       -6.8079438178
HD2        10.9847934089       16.6470661746       -7.5805853806
C           9.5053771510       14.5876016544       -5.3932654972
O           8.6316063812       14.7678944451       -6.2457220295
N           9.5330566343       15.2434730514       -4.2326083293
H          10.2835097601       15.0152668270       -3.5944809439
CA          8.6597637003       16.3560844027       -3.8413566663
HA          8.4998198015       16.9924842240       -4.7135445888
CB          7.2870337452       15.8292710504       -3.3815547570
HB2         6.6504266992       16.6826029511       -3.1431469261
HB3         6.8125854494       15.3216580910       -4.2224718047
CG          7.2882944334       14.8834085079       -2.1905423585
CD1         7.3361887133       13.4903553280       -2.3986840056
HD1         7.4145886626       13.0936499296       -3.4029163636
CE1         7.2600398944       12.6076156373       -1.3043132297
HE1         7.2762454549       11.5399640680       -1.4631672993
CZ          7.1407694368       13.1143078929        0.0062113599
OH          7.0412495181       12.2544905252        1.0538553356
HH          6.9517412407       12.7207876922        1.8937152267
CE2         7.1083794090       14.5100393694        0.2187685097
HE2         7.0144118059       14.9015848965        1.2223438243
CD2         7.1787986486       15.3909016573       -0.8795111866
HD2         7.1315322209       16.4601623493       -0.7137402741
C           9.3169761466       17.2265209965       -2.7520384856
O          10.2326455790       16.7786529095       -2.0513690735
N           8.8484328224       18.4710442844       -2.6010296986
H           8.0990904623       18.7688380207       -3.2113409575
CH3         9.3446642673       19.4333663580       -1.6167819774
HH31        8.7869084232       20.3687054752       -1.6926218786
HH32        9.2265271048       19.0333276564       -0.6076592623
HH33       10.4025648440       19.6385721684       -1.7930798074
         110
Energy of minimum      4=    -157.7251280     first found at step      159 after               109454 function calls
HH31       10.3282705721       12.2329155752        7.4015057260
CH3         9.8610805735       11.3212834605        7.7709808582
HH32       10.3935855279       10.9698843134        8.6535507375
HH33        8.8223684607       11.5236814377        8.0278425754
C           9.9117920748       10.2624668154        6.6946558527
O          10.4994423499        9.2017195605        6.9002611470
N           9.2974665857       10.5506687275        5.5489921082
H           8.8536730670       11.4547454989        5.4683281349
CA          9.2362709640        9.6698781489        4.3751328306
HA         10.1120388100        9.0186246615        4.3704655941
CB          7.9780456939        8.7876423419        4.4677200834
HB2         8.0437867848        8.1735795138        5.3672931303
HB3         7.1030891031        9.4310220274        4.5765419951
CG          7.7671358488        7.8718407405        3.2738148101
CD1         6.8520932800        8.2283228803        2.2616554827
HD1         6.2799711605        9.1445942709        2.3451660525
CE1         6.6854880710        7.4017647099        1.1330101211
HE1         5.9831832078        7.6775231723        0.3583050026
CZ          7.4367827521        6.2122265041        1.0141557561
OH          7.2765196949        5.4060742599       -0.0687750610
HH          6.6072006346        5.7525159604       -0.6721917835
CE2         8.3516669938        5.8555163944        2.0282016170
HE2         8.9236107305        4.9429533384        1.9316143347
CD2         8.5166324173        6.6848186987        3.1553887839
HD2         9.2226248161        6.4092378244        3.9297203003
C           9.2417126099       10.4722908625        3.0615347375
O           8.7090024582       11.5848862426        3.0016868415
N           9.8140565346        9.8898259985        2.0032600136
H          10.2212380232        8.9732766470        2.1307238781
CA          9.7142931442       10.3649720708        0.6188314259
HA          8.7390346095       10.8322196068        0.4812899295
CB         10.8019191142       11.4171196213        0.3444126719
HB2        10.8546104858       12.1025051859        1.1917328820
HB3        11.7719528622       10.9227671459        0.2699405224
CG         10.5550676816       12.2485040718       -0.9016516509
CD1        11.1905534924       11.9282630929       -2.1182600491
HD1        11.8654132964       11.0827476263       -2.1739321173
CE1        10.9523230002       12.7116603550       -3.2653324683
HE1        11.4374649307       12.4730765933       -4.2017733935
CZ         10.0843282179       13.8222734489       -3.1950085325
OH          9.8791562816       14.5950456207       -4.2921207954
HH          9.2806195698       15.3379448408       -4.0954077162
CE2         9.4416917185       14.1372514941       -1.9799459262
HE2         8.7678295373       14.9808331456       -1.9275186021
CD2         9.6786106421       13.3493521704       -0.8373381755
HD2         9.1851987077       13.5916571282        0.0954840454
C           9.8219558916        9.1859941304       -0.3656812197
O          10.4647750802        8.1758553118       -0.0635039924
N           9.2212015904        9.3124679896       -1.5508175248
H           8.7367284320       10.1759126829       -1.7558323383
CA          9.2595591281        8.2985077407       -2.6116050058
HA2        10.2950295017        8.0060566872       -2.7907788168
HA3         8.7055975950        7.4135266869       -2.2977569076
C           8.6605683948        8.8062304585       -3.9263087560
O           7.8084469754        9.6987410476       -3.9203168731
N           9.1179989265        8.2654666376       -5.0600761975
H           9.8131871650        7.5353044692       -4.9966283187
CA          8.7822615460        8.7838052173       -6.3933731295
HA2         9.2530967485        8.1687455911       -7.1603565070
HA3         7.7018910741        8.7398423940       -6.5372545952
C           9.2604022631       10.2310092234       -6.5696571706
O          10.4024976897       10.5554730248       -6.2310076936
N           8.3828640542       11.1110611481       -7.0579553834
H           7.4721621555       10.7739188638       -7.3374963009
CA          8.5783004976       12.5637596442       -7.0122704378
HA          9.2552915975       12.7969360208       -6.1894709273
CB          9.2368044960       13.0584397886       -8.3080024611
HB2        10.1948432023       12.5522043135       -8.4350100954
HB3         8.6054426362       12.7890938493       -9.1563342412
CG          9.4774196401       14.5574160916       -8.3167634796
CD1        10.5405032875       15.1012555144       -7.5692401336
HD1        11.2003877268       14.4474837170       -7.0118486254
CE1        10.7394884332       16.4954069413       -7.5309528488
HE1        11.5538921879       16.9107672313       -6.9532933047
CZ          9.8704442358       17.3512963995       -8.2421955554
OH         10.0532552194       18.6978925590       -8.2071210643
HH         10.8143685011       18.9368058069       -7.6624835494
CE2         8.8058875348       16.8057770632       -8.9911501877
HE2         8.1423283245       17.4662065921       -9.5323350390
CD2         8.6099195925       15.4111905153       -9.0273227210
HD2         7.7849902121       14.9978430373       -9.5953089941
C           7.2584032114       13.3048554663       -6.7495927178
O           6.2492187522       13.0560521458       -7.4146249635
N           7.2854386909       14.2307190897       -5.7904374785
H           8.1576964071       14.3501714566       -5.2930473327
CA          6.2165248340       15.1836878589       -5.4699128626
HA          5.7613753217       15.5189954337       -6.4035607561
CB          5.1216089814       14.5034956316       -4.6262706742
HB2         4.3228689887       15.2250429241       -4.4483000624
HB3         4.6795975424       13.6996934510       -5.2165589759
CG          5.5582173567       13.9298814917       -3.2871387837
CD1         5.9543157690       12.5805185843       -3.1954096566
HD1         5.9867711805       11.9623846508       -4.0835773337
CE1         6.2896139306       12.0242110406       -1.9461360566
HE1         6.5749471661       10.9857868295       -1.8710056083
CZ          6.2353653673       12.8170073103       -0.7812031238
OH          6.5370452454       12.2652136627        0.4235341967
HH          6.4480529375       12.9027942073        1.1421988070
CE2         5.8526204185       14.1732641228       -0.8724985475
HE2         5.8075881712       14.7830554883        0.0193712010
CD2         5.5120586012       14.7255529750       -2.1239011931
HD2         5.1991679617       15.7605535568       -2.1864793333
C           6.7755529979       16.4306718341       -4.7566083143
O           7.8710918501       16.3937009394       -4.1834070652
N           6.0225435133       17.5367752811       -4.7826936191
H           5.1385906439       17.4926084803       -5.2719308835
CH3         6.3879390946       18.8072467183       -4.1554489034
HH31        5.5977855766       19.5439184712       -4.3125322894
HH32        6.5321293492       18.6684336238       -3.0820166772
HH33        7.3151570405       19.1869483188       -4.5895417986
         110
Energy of minimum      5=    -156.9564402     first found at step      140 after                98480 function calls
HH31        7.0560509374       11.2486964831        7.3112047800
CH3         6.8659790229       10.2148777108        7.5956903051
HH32        7.0833440527       10.0818043307        8.6544511795
HH33        5.8220371144        9.9714832217        7.4040564083
C           7.7499803590        9.3016246213        6.7791467012
O           8.5593430487        8.5640076234        7.3393043880
N           7.5937754904        9.3512532433        5.4580580738
H           6.9186750682       10.0049519543        5.0879261459
CA          8.3580381260        8.5632481067        4.4806066551
HA          9.3420848188        8.3448195798        4.8989699994
CB          7.6452340292        7.2213520389        4.2209059076