         110
Energy of minimum      1=    -153.4901111     first found at step        0 after                60514 function calls
HH31       -0.3534282559       10.7525324955        6.1431123876
CH3        -0.7005526834       10.6668905259        5.1145050208
HH32       -0.8553578767        9.6171939455        4.8695122098
HH33       -1.6368243866       11.2108891957        4.9986403713
C           0.3402943542       11.2480309303        4.1865988546
O           0.0540941701       12.1932700095        3.4535472943
N           1.5455572363       10.6829168920        4.2182789470
H           1.6803128296        9.8979960366        4.8400834615
CA          2.6913189503       11.0802795308        3.3887824273
HA          2.3207476805       11.5181218502        2.4604087026
CB          3.5078133784       12.1493382327        4.1361715874
HB2         2.8414307833       12.9657473119        4.4194125791
HB3         3.8991933471       11.7154337694        5.0579642231
CG          4.6538408141       12.7397217291        3.3335887203
CD1         5.9847401052       12.3702188488        3.6149086537
HD1         6.1984161730       11.6710215751        4.4142122569
CE1         7.0423787909       12.9069473977        2.8544789947
HE1         8.0639651177       12.6257898252        3.0661135714
CZ          6.7726241395       13.8148614344        1.8080357841
OH          7.7944285568       14.3393766618        1.0804879565
HH          7.4664426117       14.9462855199        0.4056441013
CE2         5.4390832419       14.1861146351        1.5283450459
HE2         5.2292837778       14.8845998519        0.7297923238
CD2         4.3834203775       13.6478732227        2.2906963874
HD2         3.3613246643       13.9358226609        2.0747954028
C           3.5645013724        9.8669100182        3.0163124608
O           3.5941042249        8.8676421602        3.7419941014
N           4.2822513820        9.9522715733        1.8922280243
H           4.2477713692       10.8178916303        1.3709864500
CA          5.2061459202        8.9239395494        1.3964295993
HA          5.6014176917        8.3640835905        2.2457365413
CB          4.4390202769        7.9478036952        0.4879301371
HB2         3.5858352789        7.5500200186        1.0398650815
HB3         4.0444329203        8.4966590287       -0.3689277630
CG          5.2661069976        6.7740847582       -0.0057590885
CD1         5.7274286496        6.7392349873       -1.3373923719
HD1         5.4806164727        7.5442773913       -2.0192711351
CE1         6.5156170951        5.6606450775       -1.7856094398
HE1         6.8698179127        5.6359798877       -2.8071933318
CZ          6.8445616154        4.6112165346       -0.8998915593
OH          7.6052730498        3.5677015549       -1.3248313811
HH          7.8534170082        3.6668118913       -2.2531517013
CE2         6.3815375406        4.6469714941        0.4329048382
HE2         6.6357531231        3.8401134900        1.1066226327
CD2         5.5937058533        5.7267392688        0.8780560537
HD2         5.2390605511        5.7499109049        1.9017485285
C           6.4002751885        9.5576415047        0.6578772705
O           6.2774409029       10.6419387203        0.0799647935
N           7.5536743246        8.8814117523        0.6601878978
H           7.5809433363        7.9876470139        1.1294282427
CA          8.8052292657        9.3874270010        0.0834817099
HA2         9.5070439330        8.5635193489       -0.0462532476
HA3         8.6036010126        9.8101152170       -0.9017287719
C           9.4769936733       10.4557293993        0.9567811403
O           9.4375551612       10.3805187967        2.1885390288
N          10.1105203588       11.4457651661        0.3251776657
H          10.1058810513       11.4518959594       -0.6859874781
CA         10.7976298189       12.5563200723        0.9946479922
HA2        10.1305100666       13.0048179757        1.7310321152
HA3        11.6741030897       12.1768788804        1.5206678750
C          11.2538530784       13.6543886426        0.0271424039
O          11.1611525546       13.5013118225       -1.1950850165
N          11.7550044722       14.7638328194        0.5751784951
H          11.8139544317       14.8099545434        1.5832316212
CA         12.2575763437       15.9248956335       -0.1714592888
HA         12.6117815402       15.5938811273       -1.1492956916
CB         11.1071937047       16.9228480314       -0.3873341867
HB2        10.2956228228       16.4160814615       -0.9118974499
HB3        10.7217949574       17.2345351692        0.5850400085
CG         11.4923964213       18.1543428707       -1.1871399033
CD1        11.7257887554       19.3807664594       -0.5324250194
HD1        11.6130918867       19.4538774258        0.5425914643
CE1        12.1129827917       20.5143284115       -1.2737348138
HE1        12.2943688755       21.4576692602       -0.7773642155
CZ         12.2679083544       20.4246004013       -2.6736977980
OH         12.6364081393       21.5226005382       -3.3858228982
HH         12.7039173700       21.3250395511       -4.3288474021
CE2        12.0305737158       19.1964428382       -3.3294398105
HE2        12.1463014753       19.1261896666       -4.4024120562
CD2        11.6446797586       18.0640146119       -2.5849754727
HD2        11.4651617122       17.1221726050       -3.0898232973
C          13.4412160545       16.5911417690        0.5534990864
O          13.5158630432       16.5687569425        1.7861127121
N          14.3604839600       17.1899260360       -0.2085883647
H          14.2161566850       17.2030527928       -1.2087879562
CA         15.5303645937       17.9261485167        0.2865931208
HA         15.2650947252       18.4128913403        1.2268091202
CB         16.6886861119       16.9493844271        0.5683189000
HB2        17.5239243825       17.5110754726        0.9893725498
HB3        16.3696535921       16.2450492786        1.3381153948
CG         17.1893613978       16.1603199479       -0.6319818382
CD1        16.6150037056       14.9115592307       -0.9457763437
HD1        15.8159144579       14.5136117203       -0.3326407743
CE1        17.0774730911       14.1781700746       -2.0561565296
HE1        16.6381906335       13.2211050036       -2.3020901583
CZ         18.1218942343       14.6895813042       -2.8557420200
OH         18.5655789873       13.9785584440       -3.9262605253
HH         19.2804561891       14.4394219458       -4.3842143751
CE2        18.7033086606       15.9365183115       -2.5377639522
HE2        19.5056395976       16.3292481626       -3.1474465655
CD2        18.2373865051       16.6678687965       -1.4269158810
HD2        18.6866997327       17.6237454460       -1.1864552727
C          15.9575006427       19.0324288102       -0.6973077521
O          15.6480984549       18.9728126999       -1.8918236116
N          16.6823335121       20.0415994232       -0.1979624042
H          16.8975248390       20.0206004801        0.7898660571
CH3        17.1820670197       21.1748718365       -0.9772176720
HH31       16.3481982001       21.7168309630       -1.4281709018
HH32       17.7382539212       21.8574887707       -0.3319407614
HH33       17.8437777360       20.8220919671       -1.7708983781
         110
Energy of minimum      2=    -153.4358854     first found at step      113 after                86711 function calls
HH31       -2.0714610621       12.3228589581        3.3115324669
CH3        -2.0486787352       11.7209787458        2.4042926193
HH32       -2.1265741539       10.6667180466        2.6656654670
HH33       -2.8811690606       12.0000016905        1.7600334186
C          -0.7453586073       11.9607072702        1.6790454432
O          -0.7504433433       12.4055769794        0.5323907157
N           0.3683612269       11.6655759922        2.3465345637
H           0.2713907418       11.2864500502        3.2780714704
CA          1.7340145129       11.8060127669        1.8230844426
HA          1.7085036280       11.7043548719        0.7368424497
CB          2.2630878662       13.2098838445        2.1656754876
HB2         1.5524642217       13.9522090005        1.7985484287
HB3         2.3104522886       13.3151358042        3.2509550048
CG          3.6227373007       13.5315085194        1.5707105156
CD1         4.7724595891       13.5416961441        2.3861864302
HD1         4.6904934382       13.3314245458        3.4456617603
CE1         6.0338485418       13.8223223952        1.8248687820
HE1         6.9178662495       13.8303146820        2.4460973722
CZ          6.1504364172       14.0926047038        0.4444790093
OH          7.3667506977       14.3722313785       -0.0948870991
HH          7.2974704592       14.5416419105       -1.0424232301
CE2         4.9977023310       14.0842885936       -0.3713168897
HE2         5.0830455494       14.2948715264       -1.4286510523
CD2         3.7374931552       13.8035294711        0.1929127799
HD2         2.8545508836       13.7994253191       -0.4352622397
C           2.6634611600       10.7071641385        2.3727277921
O           2.4290189196       10.1724472078        3.4613696559
N           3.7224106682       10.3736455022        1.6288141240
H           3.8806082860       10.8849738098        0.7710863705
CA          4.7443398631        9.3875052993        2.0030486531
HA          4.8181504908        9.3498212184        3.0912272250
CB          4.3179906432        7.9981914093        1.4983437319
HB2         3.3219251310        7.7742215707        1.8836743789
HB3         4.2472253110        8.0228855012        0.4095235691
CG          5.2460125800        6.8711122530        1.9153393992
CD1         5.2371012061        6.4127705081        3.2477155480
HD1         4.5553100774        6.8504260320        3.9673507534
CE1         6.1131018204        5.3841886034        3.6469387330
HE1         6.1104044656        5.0280723820        4.6680728565
CZ          7.0018929009        4.8096979100        2.7131148829
OH          7.8460599866        3.8179747189        3.1030459666
HH          8.3970862977        3.5148788406        2.3697793290
CE2         7.0102189302        5.2687784929        1.3777585926
HE2         7.6908527580        4.8307224027        0.6604407640
CD2         6.1328202393        6.2976879378        0.9815106548
HD2         6.1452315054        6.6495899584       -0.0431743406
C           6.1280434368        9.7838982413        1.4542146957
O           6.2257788095       10.4468048177        0.4170198231
N           7.2013393252        9.3701874305        2.1357576604
H           7.0536604451        8.8091675349        2.9623125858
CA          8.5819634048        9.7383111703        1.7990210040
HA2         9.2735059266        9.0655762796        2.3063626178
HA3         8.7344150942        9.6231020883        0.7250355911
C           8.9320340263       11.1773907019        2.2011247733
O           8.4743663436       11.6730218638        3.2352092607
N           9.7574667352       11.8489456219        1.3960640712
H          10.0975090562       11.3878070382        0.5628549058
CA         10.1920076831       13.2334168335        1.6152726537
HA2         9.3207971422       13.8626263463        1.7984337832
HA3        10.8315276863       13.2780249609        2.4972601218
C          10.9662778412       13.8177250174        0.4282418531
O          11.2927208011       13.1067969548       -0.5277245210
N          11.2673066813       15.1168437773        0.4918646117
H          10.9805095213       15.6304309758        1.3139057726
CA         12.0109985596       15.8651153669       -0.5304945264
HA         12.6711101386       15.1792247614       -1.0643404079
CB         11.0172420692       16.4630523642       -1.5405359577
HB2        10.4144653103       15.6561984866       -1.9604217357
HB3        10.3383582977       17.1358074299       -1.0135642295
CG         11.6689512314       17.2123774979       -2.6886679001
CD1        11.6953884736       18.6219236328       -2.6922412865
HD1        11.2372070530       19.1759992256       -1.8817278088
CE1        12.3208299661       19.3154909838       -3.7472647539
HE1        12.3398677751       20.3967692622       -3.7491945650
CZ         12.9227675864       18.5976300762       -4.8039892039
OH         13.5211775624       19.2599223506       -5.8296066578
HH         13.4654199535       20.2169376516       -5.7121528376
CE2        12.8940062448       17.1863965255       -4.7999063873
HE2        13.3546390773       16.6422516479       -5.6129436683
CD2        12.2688724970       16.4958301967       -3.7429845262
HD2        12.2491687392       15.4124838012       -3.7430629707
C          12.8877494916       16.9612215482        0.1020677119
O          12.5384683750       17.5190467132        1.1471961553
N          14.0218170400       17.2734424491       -0.5309937655
H          14.2264505400       16.8056746520       -1.4031962178
CA         14.9733946239       18.3104405389       -0.1119586684
HA         14.4185288748       19.1282275413        0.3513190579
CB         15.9446066231       17.7399112575        0.9400310027
HB2        16.6026009702       18.5415829483        1.2787923771
HB3        15.3675358903       17.4243215927        1.8105794451
CG         16.8009637097       16.5708771048        0.4773543924
CD1        18.0665237816       16.8035402193       -0.0989336238
HD1        18.4311308891       17.8167693674       -0.2165185727
CE1        18.8612224183       15.7210564825       -0.5262637314
HE1        19.8305520326       15.9023390793       -0.9703604288
CZ         18.3915354820       14.3979909607       -0.3749685219
OH         19.1522252946       13.3485845426       -0.7854703394
HH         19.9898147192       13.6464442803       -1.1634767689
CE2        17.1277362524       14.1645435276        0.2081263436
HE2        16.7744375992       13.1491688032        0.3248367769
CD2        16.3364798153       15.2490860341        0.6351487567
HD2        15.3689451939       15.0651668456        1.0855639032
C          15.7352197400       18.8982771954       -1.3154231198
O          15.8366230322       18.2664617022       -2.3720882071
N          16.2844232314       20.1087361935       -1.1530304114
H          16.1592951966       20.5642200572       -0.2589155662
CH3        17.0519941493       20.8206950429       -2.1753946488
HH31       16.4326415137       20.9921517663       -3.0581418494
HH32       17.3883945030       21.7844064349       -1.7883518709
HH33       17.9253376296       20.2332988972       -2.4661018185
         110
Energy of minimum      3=    -153.3189191     first found at step        0 after                 1968 function calls
HH31        2.1349708144        1.1345405419       -0.7210488089
CH3         2.2085391601        2.1493342714       -1.1093177656
HH32        1.3473016909        2.7292741706       -0.7809934630
HH33        2.2351524769        2.1227775125       -2.1976451933
C           3.4724872842        2.7973647753       -0.5949177866
O           4.2274752584        2.1725609970        0.1483299341
N           3.7010262021        4.0484249065       -0.9893787025
H           3.0146917060        4.4847631615       -1.5888770681
CA          4.8591786090        4.8625713660       -0.5977963651
HA          5.2167291491        4.5293738729        0.3780173680
CB          5.9912407968        4.6609035984       -1.6221976144
HB2         6.2818588950        3.6091745134       -1.6239262002
HB3         5.6117248868        4.8953643510       -2.6183419764
CG          7.2287164117        5.5021089721       -1.3580502551
CD1         7.4444295372        6.6907888266       -2.0853908885
HD1         6.7459985302        6.9899887740       -2.8576626365
CE1         8.5606919204        7.5013858859       -1.8004886373
HE1         8.7287092153        8.4160162884       -2.3519755818
CZ          9.4681238447        7.1237849154       -0.7879782176
OH         10.5434425827        7.9098070330       -0.5160393945
HH         11.0862827415        7.5333439994        0.1883228761
CE2         9.2566081043        5.9289148890       -0.0652954541
HE2         9.9517738210        5.6370305983        0.7099997012
CD2         8.1368106836        5.1219522814       -0.3500382063
HD2         7.9721569899        4.2100833137        0.2116765170
C           4.4918550138        6.3529546738       -0.4767853875
O           3.6183265392        6.8478440848       -1.1961286473
N           5.1879228725        7.0754126643        0.4059628732
H           5.8968334612        6.6019063594        0.9491153710
CA          5.1530250707        8.5373932621        0.5177375796
HA          4.9111997481        8.9611444936       -0.4585320139
CB          4.0587247743        8.9586199584        1.5115751243
HB2         3.1034549694        8.5488216817        1.1797465425
HB3         4.2785362460        8.5245165595        2.4884802277
CG          3.9075224583       10.4623997083        1.6551767312
CD1         4.4619275357       11.1288829012        2.7666070064
HD1         4.9833066249       10.5677379726        3.5328468888
CE1         4.3460214771       12.5282542659        2.8807369260
HE1         4.7708655625       13.0454174379        3.7300981768
CZ          3.6744020575       13.2661798034        1.8826034477
OH          3.5662895823       14.6165848893        1.9962823402
HH          3.0853990475       14.9962435907        1.2494706790
CE2         3.1177825851       12.5977811598        0.7701000772
HE2         2.6023730816       13.1611079114        0.0041045376
CD2         3.2360005508       11.1981168118        0.6585352445
HD2         2.8101218052       10.6873723875       -0.1970406631
C           6.5293328763        9.0806864136        0.9425096686
O           7.2187492957        8.4674036309        1.7633394731
N           6.9259021588       10.2346292846        0.4001567149
H           6.3081789715       10.7008368432       -0.2504776410
CA          8.2061879783       10.8912119875        0.6838912545
HA2         8.2496421415       11.1565221630        1.7407138296
HA3         9.0232233128       10.2002569709        0.4734989716
C           8.4261568849       12.1631524337       -0.1433618860
O           7.5911362709       12.5334164787       -0.9748926924
N           9.5551314592       12.8378003738        0.0815575009
H          10.1982070089       12.4802378451        0.7757851164
CA          9.9418562485       14.0737112933       -0.6094480202
HA2         9.9983608824       13.8866100793       -1.6823516057
HA3         9.1823789611       14.8374875947       -0.4387433720
C          11.2946044223       14.6270586597       -0.1451928311
O          11.9472199830       14.0514194401        0.7313784293
N          11.7173297545       15.7480888680       -0.7342471363
H          11.1207403130       16.1710306755       -1.4322632524
CA         12.9737462176       16.4453346526       -0.4267825788
HA         13.2507964203       16.2421714136        0.6091831841
CB         14.0872932771       15.9045077758       -1.3406563658
HB2        14.1759851865       14.8277111956       -1.1877604721
HB3        13.7982772251       16.0621353966       -2.3812754509
CG         15.4501826816       16.5311712296       -1.1045340249
CD1        15.9389035985       17.5185698910       -1.9844006593
HD1        15.3508450601       17.8202943671       -2.8429121580
CE1        17.1908371997       18.1204592403       -1.7484992634
HE1        17.5645537935       18.8772448577       -2.4246062670
CZ         17.9589392663       17.7339266413       -0.6283576884
OH         19.1716487029       18.3039953266       -0.3986178818
HH         19.3903255908       18.9552242864       -1.0773220224
CE2        17.4692041247       16.7442174449        0.2508636893
HE2        18.0628437590       16.4510104503        1.1058152184
CD2        16.2164102594       16.1451577209        0.0129514920
HD2        15.8434535780       15.3865037859        0.6907498523
C          12.8247603684       17.9703085763       -0.5805397254
O          12.0367617592       18.4439684718       -1.4053203511
N          13.5919493722       18.7386803571        0.1986798680
H          14.2363419213       18.2820833207        0.8296971016
CA         13.6698476004       20.2030316240        0.1304944189
HA         13.4890249685       20.5191320565       -0.8982801571
CB         12.5790517119       20.8150933058        1.0259187173
HB2        11.6102670189       20.4109624014        0.7280070518
HB3        12.7547394050       20.5091514617        2.0587185452
CG         12.4960284486       22.3296238147        0.9590435758
CD1        13.0118199400       23.1171325868        2.0083212463
HD1        13.4602750623       22.6432052733        2.8732992598
CE1        12.9510940122       24.5229794107        1.9342412145
HE1        13.3483918925       25.1258080047        2.7394909042
CZ         12.3722667708       25.1456724067        0.8067239776
OH         12.3107142216       26.5014963073        0.7277593716
HH         12.6973786347       26.9183792491        1.5087167078
CE2        11.8554906994       24.3560913563       -0.2428506375
HE2        11.4124781653       24.8383155327       -1.1034969368
CD2        11.9176908769       22.9507413164       -0.1657430542
HD2        11.5188772926       22.3477525163       -0.9729224052
C          15.0685306524       20.7023065577        0.5397716586
O          15.7240316669       20.0971850443        1.3943157574
N          15.5214345003       21.8137172296       -0.0539076222
H          14.9140379269       22.2675039396       -0.7225340987
CH3        16.8169125263       22.4364012391        0.2181583326
HH31       17.6222780800       21.7211322186        0.0396212449
HH32       16.9613130968       23.3005259714       -0.4329357010
HH33       16.8619478700       22.7667598551        1.2578084884
         110
Energy of minimum      4=    -153.3017865     first found at step        0 after                16962 function calls
HH31       -0.8875488123        3.3415580417       -1.4081931658
CH3        -0.4804700008        4.1186591660       -0.7629243430
HH32       -0.1255100802        3.6736218198        0.1654088651
HH33       -1.2545125568        4.8519702060       -0.5416026084
C           0.6710544297        4.8036966421       -1.4606568618
O           1.0087374616        4.4474633367       -2.5884302392
N           1.2723914084        5.7845438084       -0.7903486120
H           0.9335178737        5.9957524404        0.1377684142
CA          2.4144439603        6.5687438828       -1.2784407111
HA          2.9884175719        5.9639618905       -1.9826196704
CB          1.8950725547        7.8135872067       -2.0215726135
HB2         1.2964810277        7.4905925906       -2.8747776605
HB3         1.2363990748        8.3732723896       -1.3550819601
CG          2.9883291614        8.7415832988       -2.5239378625
CD1         3.7152780945        8.4101672728       -3.6845198723
HD1         3.4700739812        7.5123567499       -4.2394530271
CE1         4.7662424948        9.2407079503       -4.1225722246
HE1         5.3246986684        8.9841745634       -5.0124332000
CZ          5.0956434775       10.4057903752       -3.3953879411
OH          6.1109779402       11.2095698263       -3.8090594395
HH          6.5200852961       10.8735259201       -4.6166667075
CE2         4.3641210821       10.7393751158       -2.2357396564
HE2         4.6192513372       11.6335704770       -1.6841643068
CD2         3.3117186417        9.9092781055       -1.8025323249
HD2         2.7591454742       10.1653457895       -0.9065281925
C           3.3588818936        6.9725079511       -0.1313536653
O           2.9190346368        7.1838070480        1.0032408679
N           4.6513576879        7.1182268653       -0.4379010246
H           4.9331497120        6.9402651875       -1.3922029013
CA          5.6681401509        7.7061883488        0.4404774831
HA          5.1864532571        8.4198646788        1.1111416940
CB          6.3198606626        6.6059957621        1.2933457361
HB2         5.5415030015        6.0864813174        1.8544627857
HB3         6.7895363469        5.8747851291        0.6331610539
CG          7.3513926668        7.1249200135        2.2789881807
CD1         8.7270077679        7.0138152826        1.9916496158
HD1         9.0533793499        6.5412904499        1.0728489643
CE1         9.6821153712        7.5224681921        2.8941154987
HE1        10.7371056619        7.4378367059        2.6716260164
CZ          9.2613567843        8.1450258228        4.0897202711
OH         10.1769364049        8.6389591606        4.9649145504
HH         11.0789083754        8.4980009576        4.6491924602
CE2         7.8838034974        8.2544932449        4.3768313023
HE2         7.5674116322        8.7321016524        5.2940156280
CD2         6.9313207970        7.7455676195        3.4720796065
HD2         5.8745330967        7.8332668875        3.6948089977
C           6.7212000986        8.4674498082       -0.3849099967
O           7.1040828709        8.0251290467       -1.4725337171
N           7.2015518020        9.6011750515        0.1317262403
H           6.8640973524        9.9017415053        1.0361843187
CA          8.1992773873       10.4557602950       -0.5202026220
HA2         9.1302793834        9.9000078109       -0.6364335392
HA3         7.8448434544       10.7355968293       -1.5128216310
C           8.4968783910       11.7390276693        0.2641476573
O           7.9063186814       11.9909009299        1.3194074743
N           9.4162113707       12.5576681903       -0.2506110028
H           9.8624801746       12.2933213127       -1.1191229879
CA          9.8347275474       13.8288144387        0.3523481240
HA2         8.9704027758       14.4871188351        0.4467053991
HA3        10.2295653012       13.6434840594        1.3518745862
C          10.9093368333       14.5587430034       -0.4625599676
O          11.3475759184       14.0739925576       -1.5107048373
N          11.3355093805       15.7284121637        0.0197698258
H          10.9415924282       16.0534266033        0.8922499149
CA         12.3638987004       16.5763212600       -0.5988885785
HA         13.0470083853       15.9479415598       -1.1731332131
CB         11.6880403299       17.5651601482       -1.5648408394
HB2        11.1282726166       17.0002156726       -2.3119902410
HB3        10.9689143470       18.1681005802       -1.0075390169
CG         12.6510172661       18.4878494359       -2.2909597912
CD1        12.8038499160       19.8254077012       -1.8719735299
HD1        12.2204966321       20.2044949948       -1.0413814867
CE1        13.7187981349       20.6728444386       -2.5277022397
HE1        13.8344523890       21.6986748702       -2.2055150293
CZ         14.4847633979       20.1821210665       -3.6077918599
OH         15.3635631107       20.9959985339       -4.2510156676
HH         15.3648079496       21.8843428259       -3.8723339751
CE2        14.3296960930       18.8433076683       -4.0272278385
HE2        14.9176136385       18.4738592435       -4.8561920712
CD2        13.4148950733       17.9980700705       -3.3686853050
HD2        13.2994487948       16.9706602485       -3.6929752038
C          13.1943399285       17.3211768643        0.4626899036
O          12.6882864713       17.6449296260        1.5418817239
N          14.4621367572       17.6086270803        0.1524953479
H          14.8005620221       17.3397746639       -0.7613393195
CA         15.3794259577       18.3975038481        0.9839361752
HA         14.8017866810       19.1298409712        1.5505129670
CB         16.0950064424       17.4678075802        1.9788415347
HB2        15.3451210644       16.9177267492        2.5495450448
HB3        16.6807458964       16.7348643640        1.4213068250
CG         16.9990089403       18.1873719213        2.9638177701
CD1        18.3983350653       18.1581899830        2.7969588538
HD1        18.8363708930       17.6122957710        1.9699829909
CE1        19.2319029486       18.8435562680        3.7026876675
HE1        20.3060473322       18.8258800603        3.5790520650
CZ         18.6680416902       19.5610445417        4.7793418563
OH         19.4763641249       20.2214446420        5.6504329308
HH         18.9647495454       20.6686415850        6.3370635205
CE2        17.2660625727       19.5894244865        4.9464851694
HE2        16.8316059495       20.1376609394        5.7714027984
CD2        16.4351022363       18.9028078422        4.0389714372
HD2        15.3595910087       18.9246864077        4.1698434810
C          16.3930237787       19.1650671098        0.1141406646
O          16.7978384835       18.6826433432       -0.9486350279
N          16.8175289484       20.3509310710        0.5683765640
H          16.4608914661       20.6648981068        1.4606393645
CH3        17.7832847212       21.2098439269       -0.1169187060
HH31       17.4273573486       21.4484211949       -1.1211579429
HH32       17.9192388849       22.1390103819        0.4395472115
HH33       18.7463370961       20.7014436805       -0.1950308751
         110
Energy of minimum      5=    -153.2268713     first found at step      120 after                91456 function calls
HH31       -2.7297069637       10.2897294031        3.4992054187
CH3        -2.5272111069       10.0424602651        2.4581854236
HH32       -2.3776507779        8.9680700099        2.3624098086
HH33       -3.3687092485       10.3506207821        1.8394052619
C          -1.2778789744       10.7626937982        2.0081265377
O          -1.3273614634       11.5548787354        1.0685628621
N          -0.1602226281       10.4869854181        2.6773340182
H          -0.2156403067        9.8105100103        3.4257497772
CA          1.1605671488       11.0653444489        2.3970460055
HA          1.2128379053       11.3428445909        1.3428380373
CB          1.3428904883       12.3401731803        3.2407525928