         110
Energy of minimum      1=    -154.0383948     first found at step      117 after                81109 function calls
HH31       -2.1550834508        3.2009152348        1.0384817147
CH3        -1.5773382021        3.7057677973        0.2656262046
HH32       -2.1945632856        4.4627995046       -0.2158226585
HH33       -1.2476260073        2.9800813607       -0.4763570572
C          -0.3699652051        4.3672789973        0.8875316418
O          -0.1751517425        4.2812955782        2.0989178494
N           0.4378723349        5.0267143753        0.0595675261
H           0.1866735285        5.0547357700       -0.9186730798
CA          1.6544527405        5.7473057500        0.4572434336
HA          1.5504465966        6.0809030092        1.4911548099
CB          2.8597330238        4.7920737922        0.3764061243
HB2         2.6999290035        3.9634138058        1.0680543201
HB3         2.9099784406        4.3715013090       -0.6295293544
CG          4.1934216995        5.4424891136        0.7032925830
CD1         5.0587714323        5.8421845573       -0.3358999782
HD1         4.7907438733        5.6551736822       -1.3688194969
CE1         6.2674507104        6.5003778658       -0.0357207552
HE1         6.9324188713        6.8136110296       -0.8286197788
CZ          6.6169020181        6.7585415415        1.3068420348
OH          7.7836511741        7.3955998266        1.5914173678
HH          7.9041469459        7.5020668494        2.5436228806
CE2         5.7545669364        6.3497758650        2.3480461959
HE2         6.0214611488        6.5451955618        3.3776580591
CD2         4.5441131388        5.6949311386        2.0443846357
HD2         3.8798505776        5.3906720076        2.8445819234
C           1.8874561483        6.9947264423       -0.4148501438
O           1.5334368723        7.0123973357       -1.5979736696
N           2.5197987699        8.0222403079        0.1596677957
H           2.7918022305        7.9270581408        1.1285565392
CA          3.0367361413        9.1989292841       -0.5467432731
HA          3.2907966450        8.9129289930       -1.5688811767
CB          1.9552659890       10.2915183007       -0.6084605841
HB2         1.6171985896       10.5136784064        0.4051663158
HB3         1.0976188779        9.9113791968       -1.1654843785
CG          2.4294247138       11.5746825688       -1.2671776098
CD1         2.6263533513       11.6194352527       -2.6619638079
HD1         2.3858353600       10.7562357099       -3.2711879997
CE1         3.1576463976       12.7772262126       -3.2647354737
HE1         3.3235397060       12.8045459307       -4.3331023344
CZ          3.4936059074       13.8950267012       -2.4698290533
OH          4.0488027529       15.0003577189       -3.0364668009
HH          4.1082185217       14.9078993713       -3.9965684000
CE2         3.2727680724       13.8571236830       -1.0766193442
HE2         3.5279510106       14.7159749111       -0.4714670246
CD2         2.7438254100       12.6982858783       -0.4769428964
HD2         2.6005494899       12.6662781957        0.5964112586
C           4.3212883797        9.7220007905        0.1247622891
O           4.4562235277        9.6722257712        1.3512248869
N           5.2536661321       10.2442657421       -0.6760400686
H           5.0687150124       10.2755664976       -1.6695509865
CA          6.5196255065       10.8330964325       -0.2283089833
HA2         6.3131362706       11.6405878477        0.4750654446
HA3         7.1152958874       10.0767737279        0.2838153437
C           7.3462050996       11.3995220176       -1.3895716120
O           7.0196871689       11.1839545722       -2.5614512276
N           8.4200860973       12.1260534426       -1.0735383338
H           8.6416241573       12.2616487338       -0.0963467151
CA          9.2974907037       12.7717606956       -2.0570743708
HA2         9.8215337918       12.0106416898       -2.6358004708
HA3         8.6884624894       13.3593141076       -2.7454761709
C          10.3410739351       13.7001149134       -1.4260044260
O          10.6018411544       13.6333218888       -0.2209195553
N          10.9266707952       14.5757945180       -2.2459989736
H          10.6426207219       14.5720168746       -3.2156610652
CA         11.8689144426       15.6280071079       -1.8415697226
HA         11.8795901964       15.6969561554       -0.7527087595
CB         13.2858350792       15.2564050426       -2.3031519002
HB2        13.5404318439       14.2752118446       -1.8990136361
HB3        13.2950511907       15.1741022816       -3.3913496526
CG         14.3540447239       16.2424392623       -1.8668707986
CD1        14.8703115643       17.1813500581       -2.7828328534
HD1        14.5166190333       17.1926574956       -3.8068990195
CE1        15.8446065274       18.1115159755       -2.3694223104
HE1        16.2395682010       18.8316422679       -3.0729611656
CZ         16.3048629207       18.1045199418       -1.0343850756
OH         17.2475878269       18.9963512785       -0.6289188537
HH         17.5144612291       19.5800868243       -1.3507360463
CE2        15.7878428270       17.1630091114       -0.1186414354
HE2        16.1454505070       17.1612050533        0.9019167701
CD2        14.8136000712       16.2344467391       -0.5349713420
HD2        14.4190303322       15.5133493817        0.1710508279
C          11.4222579476       16.9969316543       -2.3846118604
O          10.8458164376       17.0780087393       -3.4744484743
N          11.6686849593       18.0669481623       -1.6211228505
H          12.2294893535       17.9433326694       -0.7906556087
CA         11.0552634449       19.3887112941       -1.8180981693
HA         10.7017305964       19.4704362086       -2.8471092843
CB          9.8377845218       19.5309577911       -0.8827135430
HB2        10.1959753986       19.6434052768        0.1421672102
HB3         9.3037111210       20.4473517949       -1.1386358861
CG          8.8580790235       18.3671588491       -0.9258201809
CD1         8.9607019281       17.3281822116        0.0222930973
HD1         9.7148009010       17.3740683913        0.7982466518
CE1         8.0985383403       16.2174507778       -0.0482855451
HE1         8.1823815435       15.4128914154        0.6688633183
CZ          7.1200142308       16.1466012296       -1.0615104549
OH          6.2970129289       15.0682848076       -1.1247490053
HH          5.6405457846       15.1540626733       -1.8320699627
CE2         7.0033701301       17.1942523680       -2.0011241817
HE2         6.2521980314       17.1412270570       -2.7772613580
CD2         7.8753302214       18.3002924324       -1.9340278085
HD2         7.7970007478       19.0944574889       -2.6664499586
C          12.0549938953       20.5335015642       -1.5767582722
O          12.9865379744       20.4007797539       -0.7766686989
N          11.8466207628       21.6745335705       -2.2455062479
H          11.0561554226       21.7106705697       -2.8751661406
CH3        12.6803707856       22.8718627099       -2.1327202106
HH31       12.2993874705       23.6572419190       -2.7882989150
HH32       13.7086656244       22.6416873175       -2.4191373067
HH33       12.6745172108       23.2378564496       -1.1039427565
         110
Energy of minimum      2=    -153.7695266     first found at step        0 after                65874 function calls
HH31       -2.1609868281        3.2500575660        0.8503655984
CH3        -1.4855593268        3.6720235058        0.1075918073
HH32       -2.0206704624        4.3991710358       -0.5013152133
HH33       -1.1011812978        2.8770814834       -0.5297377569
C          -0.3319655912        4.3556241371        0.8033038117
O          -0.2738730565        4.3702179394        2.0317959429
N           0.5832787652        4.9211932057        0.0187881770
H           0.4414565868        4.8707735270       -0.9803071699
CA          1.7723708123        5.6446713247        0.4882573099
HA          1.5671421790        6.0667509707        1.4735301959
CB          2.9457801437        4.6576620877        0.6198586032
HB2         2.6701893359        3.8759712789        1.3295572679
HB3         3.1121332206        4.1763002338       -0.3454894865
CG          4.2456536425        5.2896526226        1.0867048353
CD1         5.2707102337        5.5690360767        0.1596152935
HD1         5.1421502191        5.3135961582       -0.8854431722
CE1         6.4631408354        6.1864356805        0.5863277493
HE1         7.2485174904        6.3990468932       -0.1260689006
CZ          6.6330569162        6.5265284088        1.9462520832
OH          7.7840596712        7.1152175123        2.3669798122
HH          8.4062650986        7.2363030883        1.6385770388
CE2         5.6067718292        6.2452936794        2.8736514103
HE2         5.7434541048        6.5066987000        3.9139758103
CD2         4.4151396635        5.6286234350        2.4436458329
HD2         3.6290805173        5.4159027420        3.1584043402
C           2.1351755085        6.8079994447       -0.4527993745
O           1.9056506657        6.7326943087       -1.6640885820
N           2.7243949347        7.8730309435        0.0990215910
H           2.9035785156        7.8535720382        1.0936932705
CA          3.2680355387        9.0177976792       -0.6404406402
HA          3.6167140567        8.6748701414       -1.6161137001
CB          2.1601622280       10.0629366168       -0.8638994111
HB2         1.7307387229       10.3351004122        0.1018457727
HB3         1.3650363700        9.6149533295       -1.4617385367
CG          2.6393421976       11.3210272641       -1.5661046989
CD1         2.9611916765       11.2836244664       -2.9376889314
HD1         2.8155071454       10.3712975932       -3.5038704568
CE1         3.4927553305       12.4248673641       -3.5710935981
HE1         3.7536950146       12.3903138080       -4.6200841468
CZ          3.7030943123       13.6087610834       -2.8304994619
OH          4.2540537061       14.7025218012       -3.4233011809
HH          4.4052704299       14.5495050792       -4.3654291297
CE2         3.3578979778       13.6513204150       -1.4628920325
HE2         3.5159600058       14.5605021826       -0.8995995805
CD2         2.8294330448       12.5088933401       -0.8321745671
HD2         2.5890373453       12.5409712307        0.2236752745
C           4.4732325826        9.6347949053        0.0959030809
O           4.5259910463        9.6363847578        1.3294922261
N           5.4287619262       10.1820730538       -0.6598890462
H           5.3117708986       10.1646216341       -1.6641837668
CA          6.6128149855       10.8833345527       -0.1532901811
HA2         6.2970020943       11.7072588384        0.4877178609
HA3         7.2185885001       10.1997280841        0.4421163299
C           7.4845489507       11.4514467770       -1.2805541095
O           7.2650985706       11.1538021829       -2.4593026603
N           8.4780488203       12.2696916984       -0.9278407680
H           8.6135087164       12.4714112613        0.0536856146
CA          9.3829719477       12.9250416090       -1.8796195622
HA2         9.9890063962       12.1729302399       -2.3855372183
HA3         8.7902545564       13.4439781961       -2.6342038043
C          10.3252782478       13.9419316889       -1.2259544336
O          10.4895263152       13.9585343970       -0.0022523368
N          10.9341106243       14.7979119442       -2.0497351715
H          10.7315511039       14.7230714544       -3.0368546328
CA         11.7903875267       15.9186840498       -1.6386086930
HA         11.6845256709       16.0712028090       -0.5634096309
CB         13.2601785175       15.5765042457       -1.9241505460
HB2        13.5069775070       14.6408710151       -1.4196139088
HB3        13.3852929654       15.4128109594       -2.9958698651
CG         14.2407926886       16.6388551618       -1.4621535119
CD1        14.8183606220       17.5253136755       -2.3936340375
HD1        14.5754139204       17.4417378621       -3.4462157265
CE1        15.7100246343       18.5261494447       -1.9593152223
HE1        16.1521136477       19.2059424551       -2.6748446091
CZ         16.0256304280       18.6428367521       -0.5878250773
OH         16.8880578156       19.6035456297       -0.1615038596
HH         17.2095352874       20.1405428266       -0.8972201399
CE2        15.4473996505       17.7537482590        0.3435740053
HE2        15.6942840537       17.8467087251        1.3923042981
CD2        14.5560919150       16.7542514526       -0.0937658441
HD2        14.1142019530       16.0736630678        0.6243371195
C          11.3528291146       17.2203140467       -2.3333778340
O          10.8835906304       17.1901920883       -3.4760035072
N          11.4847281814       18.3569567846       -1.6410682554
H          11.9663071966       18.3240518921       -0.7542692441
CA         10.8375541413       19.6278635480       -1.9993957554
HA         10.5763606042       19.6109686740       -3.0586437382
CB          9.5344300460       19.7827369848       -1.1896014774
HB2         9.7921375676       20.0054985702       -0.1526428755
HB3         8.9814094449       20.6408343020       -1.5747332230
CG          8.6217169473       18.5649955300       -1.2079858139
CD1         8.6843127875       17.6259971672       -0.1576242320
HD1         9.3554110135       17.7887555381        0.6766728757
CE1         7.8924429158       16.4627799348       -0.1996842894
HE1         7.9474535166       15.7338495484        0.5967834521
CZ          7.0239738868       16.2389803949       -1.2881436425
OH          6.2701629813       15.1100051654       -1.3228976260
HH          5.6850260597       15.0871333801       -2.0949373339
CE2         6.9458051250       17.1867016183       -2.3320555787
HE2         6.2790229011       17.0162608700       -3.1662000935
CD2         7.7478315657       18.3457297293       -2.2919618223
HD2         7.7015324695       19.0624280444       -3.1028009759
C          11.7619307689       20.8360865617       -1.7671006961
O          12.6230502618       20.8120874387       -0.8819957462
N          11.5655986120       21.9102549155       -2.5418357325
H          10.8337370730       21.8582771822       -3.2377474796
CH3        12.3339210434       23.1527241826       -2.4557341471
HH31       11.9797781256       23.8651983004       -3.2032074956
HH32       13.3926034019       22.9525840487       -2.6333347754
HH33       12.2204979211       23.5963232451       -1.4644094242
         110
Energy of minimum      3=    -153.2617709     first found at step        0 after                23586 function calls
HH31       -0.1970667722        4.6732035180       -1.1556867588
CH3         0.3417781033        3.7333310802       -1.0454986412
HH32        0.5826255667        3.3350333798       -2.0299881773
HH33       -0.2767608865        3.0190692542       -0.5040101326
C           1.6207100812        3.9777277131       -0.2795302377
O           1.8205253536        3.3997234835        0.7876006416
N           2.4838550910        4.8335565289       -0.8231679018
H           2.2244452466        5.2716921614       -1.6958622275
CA          3.7751701791        5.2210496330       -0.2399738970
HA          3.7199196109        5.1230010819        0.8455518104
CB          4.8694518532        4.2699011374       -0.7563108226
HB2         4.6146216101        3.2494710000       -0.4657369009
HB3         4.8807981076        4.3041174416       -1.8471725628
CG          6.2632979553        4.5800537531       -0.2383770710
CD1         7.1942495866        5.2439457621       -1.0635334648
HD1         6.9251514410        5.5142462872       -2.0776580651
CE1         8.4751239431        5.5642843694       -0.5717324881
HE1         9.1879354315        6.0727347812       -1.2064767160
CZ          8.8284539657        5.2198135522        0.7512656336
OH         10.0651265408        5.5187298830        1.2304282647
HH         10.6075527351        5.9558066442        0.5618011982
CE2         7.8961193452        4.5543830186        1.5761068466
HE2         8.1731330707        4.2918607292        2.5878637146
CD2         6.6157833160        4.2359739736        1.0815871469
HD2         5.9024751878        3.7265277135        1.7185267603
C           4.1243380250        6.6861421493       -0.5598374964
O           3.7471720073        7.2077477160       -1.6139822871
N           4.8667035042        7.3417189958        0.3374019170
H           5.1569289380        6.8429027178        1.1672791797
CA          5.4181951337        8.6891839472        0.1573226659
HA          5.6101765428        8.8542907906       -0.9042763945
CB          4.3931170779        9.7363316578        0.6297591315
HB2         3.5280613483        9.7088271776       -0.0343948349
HB3         4.0472745570        9.4617114315        1.6278347462
CG          4.9271041469       11.1588017529        0.6703630412
CD1         5.2626683166       11.8257358106       -0.5258838366
HD1         5.0961028306       11.3427750115       -1.4813332825
CE1         5.8300142131       13.1156459742       -0.4819433187
HE1         6.0984316798       13.6233134783       -1.3983161593
CZ          6.0489938904       13.7474786012        0.7618240883
OH          6.6050934157       14.9853486991        0.8213668948
HH          6.8827711107       15.3040441204       -0.0519638215
CE2         5.6951483901       13.0868166530        1.9567464002
HE2         5.8661954390       13.5756964097        2.9059744335
CD2         5.1410538991       11.7933478194        1.9106345174
HD2         4.8909528453       11.2836984890        2.8333919510
C           6.7561053119        8.8478752484        0.9040710182
O           6.9346088737        8.3176714165        2.0046213951
N           7.6832719421        9.6061412903        0.3144304493
H           7.4664526011       10.0038969846       -0.5892203885
CA          8.9771347217        9.9772983903        0.8939137037
HA2         8.8107319986       10.5112591628        1.8302684798
HA3         9.5603867057        9.0814463505        1.1082198462
C           9.7883964648       10.8749701862       -0.0484478296
O           9.5621307246       10.8771949826       -1.2627768867
N          10.7264069089       11.6505168675        0.4988534449
H          10.8619222101       11.6137516544        1.5004975572
CA         11.5672652750       12.5840826086       -0.2605372722
HA2        12.2638540629       12.0207051378       -0.8821229456
HA3        10.9367664257       13.1825977383       -0.9195240162
C          12.3762263718       13.5408725305        0.6218969481
O          12.3937837588       13.4128809113        1.8500227297
N          13.0409739361       14.5087730858       -0.0120577197
H          12.9641943380       14.5517821737       -1.0190637933
CA         13.8180254066       15.5751214596        0.6325004734
HA         13.4433458069       15.7254045011        1.6464357612
CB         15.2925351318       15.1497459981        0.7212643978
HB2        15.3528211817       14.2013910282        1.2577444872
HB3        15.6735760299       14.9782869321       -0.2869788445
CG         16.1865764400       16.1517977144        1.4289241716
CD1        16.1504306860       16.2541681198        2.8336737496
HD1        15.4992965509       15.6062761406        3.4084506790
CE1        16.9620057795       17.1976838834        3.4938846035
HE1        16.9399791351       17.2800824468        4.5718930158
CZ         17.8120709302       18.0437773544        2.7495993796
OH         18.5977607621       18.9487977196        3.3916607407
HH         19.1295043818       19.4596803076        2.7678732883
CE2        17.8488837313       17.9399665659        1.3417120093
HE2        18.5002851287       18.5862292408        0.7694426204
CD2        17.0362852454       16.9950099982        0.6843776821
HD2        17.0645702068       16.9208999393       -0.3961711647
C          13.6575852547       16.9038235497       -0.1281696945
O          13.4910983582       16.9043158736       -1.3523440991
N          13.7079791426       18.0298594095        0.5913202386
H          13.9288587653       17.9588214110        1.5743385160
CA         13.4310318175       19.3760870609        0.0702254296
HA         13.5478321648       19.3737874788       -1.0146700911
CB         11.9777455168       19.7693526069        0.3951109127
HB2        11.8769450935       19.8749755183        1.4767805019
HB3        11.7757333681       20.7486200225       -0.0417919751
CG         10.9187467655       18.7963011805       -0.0997829186
CD1        10.4012199317       17.8145398973        0.7697115387
HD1        10.7525307071       17.7566807805        1.7925634589
CE1         9.4306600524       16.9027535774        0.3111762920
HE1         9.0378095459       16.1473192276        0.9764857572
CZ          8.9650283660       16.9741058409       -1.0195054308
OH          8.0185606121       16.0999315963       -1.4581839811
HH          7.8055692270       16.2581781230       -2.3872686906
CE2         9.4813954874       17.9592396554       -1.8901227917
HE2         9.1279022726       18.0166684177       -2.9105471131
CD2        10.4572241559       18.8664731806       -1.4295210557
HD2        10.8542584272       19.6181972759       -2.1008353106
C          14.4059936870       20.4198785125        0.6431586729
O          14.8637754051       20.2961316075        1.7835217093
N          14.7010196121       21.4693471314       -0.1341413281
H          14.2779555315       21.5064214297       -1.0518685987
CH3        15.5935748378       22.5646322033        0.2467748258
HH31       15.2069480643       23.0733347807        1.1322677598
HH32       15.6707782651       23.2863296959       -0.5686636400
HH33       16.5897062174       22.1768635299        0.4697553906
         110
Energy of minimum      4=    -153.2478295     first found at step        0 after                17844 function calls
HH31       -0.3735036328        4.4110725833        0.1619840176
CH3         0.0673783671        3.4952876693        0.5529004676
HH32        0.2431382131        2.7985771326       -0.2653726138
HH33       -0.6093688804        3.0444407450        1.2772764016
C           1.3818774181        3.8201796740        1.2227074034
O           1.5449482217        3.5687206754        2.4155830299
N           2.3164743999        4.3788191853        0.4562485156
H           2.0840546554        4.5618837818       -0.5098362008
CA          3.6539777078        4.7838245215        0.9089245568
HA          3.6138900994        5.0186289983        1.9739527218
CB          4.6314990690        3.6124616458        0.7083494794
HB2         4.2689609372        2.7512676577        1.2719169389
HB3         4.6354196012        3.3322175241       -0.3465040409
CG          6.0557042737        3.9038484166        1.1478989111
CD1         7.0446248623        4.2096908786        0.1904706661
HD1         6.7954945577        4.2182373453       -0.8639386857
CE1         8.3585673795        4.5107552571        0.6005151462
HE1         9.1159805587        4.7444427461       -0.1351852089
CZ          8.6868866312        4.5057402028        1.9739308478
OH          9.9544680465        4.7873331880        2.3769113785
HH         10.5325569321        4.9682244055        1.6248218339
CE2         7.6964719256        4.1977063419        2.9313221294
HE2         7.9544098353        4.1937897465        3.9814394356
CD2         6.3831570803        3.8984383684        2.5181725648
HD2         5.6253047064        3.6641095284        3.2562610793
C           4.1433004519        6.0428796043        0.1699452455
O           3.7982851452        6.2617667119       -0.9956883428
N           4.9640784190        6.8591262292        0.8379661569
H           5.2282625851        6.6009742682        1.7790079152
CA          5.6311196621        8.0376431199        0.2720570359
HA          5.8246899928        7.8592139474       -0.7870771165
CB          4.7087028841        9.2636078276        0.3982345406
HB2         3.7596524588        9.0448449368       -0.0936262611
HB3         4.4963944254        9.4412203185        1.4539260860
CG          5.2803791038       10.5286273508       -0.2179503844
CD1         5.3288392110       10.6625972099       -1.6195713690
HD1         4.9245727376        9.8816433361       -2.2527674780
CE1         5.9086138478       11.8068444701       -2.2016374022
HE1         5.9473696439       11.9061085191       -3.2778871236
CZ          6.4435968418       12.8229466297       -1.3799014902
OH          7.0083416152       13.9252050469       -1.9406349369
HH          6.9778020830       13.8690322594       -2.9048878409
CE2         6.3892042541       12.6916293518        0.0242570334
HE2         6.7990365250       13.4728514321        0.6491271573
CD2         5.8081621148       11.5459613784        0.6034427076
HD2         5.7782425732       11.4448721868        1.6816693900
C           6.9849302998        8.2964019134        0.9599070108
O           7.1681670750        7.9636004216        2.1348286078
N           7.9223962013        8.9213874429        0.2425380294
H           7.6988045996        9.1905296041       -0.7063420518
CA          9.2255928629        9.3501533790        0.7588638323
HA2         9.0899691940        9.8158314824        1.7359513377
HA3         9.8766906573        8.4845877556        0.8821728595
C           9.9221624829       10.3548257527       -0.1661463267
O           9.6479367150       10.4039803946       -1.3688715031
N          10.8191793824       11.1664137820        0.3959694622
H          10.9977262161       11.0691055787        1.3869176428
CA         11.5528616894       12.2251062010       -0.3073780833
HA2        12.2261325378       11.7797799964       -1.0403767862
HA3        10.8458873451       12.8636783115       -0.8385546713
C          12.3798746333       13.1021487385        0.6402556986
O          12.5189078573       12.7899235581        1.8273371050
N          12.9212595364       14.2071681992        0.1222984473
H          12.7567257717       14.4050144970       -0.8551247041
CA         13.6973886772       15.1970987836        0.8812188680
HA         13.4254763457       15.1285134307        1.9359913262
CB         15.1960976680       14.8792887687        0.7555821692
HB2        15.3707413284       13.8612721729        1.1076817478
HB3        15.4794889453       14.9128722224       -0.2978499343
CG         16.0942692800       15.8170116481        1.5423856536
CD1        16.2380898070       15.6483186413        2.9337462896
HD1        15.7235643298       14.8391284271        3.4382444042
CE1        17.0511478187       16.5311251488        3.6716640402
HE1        17.1665159305       16.4061641443        4.7395688885
CZ         17.7217683131       17.5880610660        3.0193342752
OH         18.5091662011       18.4345211692        3.7348853189
HH         18.9114468282       19.1058531877        3.1689438403
CE2        17.5777547810       17.7566170345        1.6246839040
HE2        18.0914499538       18.5649253251        1.1224079475
CD2        16.7648288016       16.8712820392        0.8893737948
HD2        16.6534108074       17.0059055871       -0.1799231088
C          13.3902309523       16.6305585959        0.4145493730
O          13.2137993529       16.8743794301       -0.7830397492
N          13.3465203008       17.5741374544        1.3606860457
H          13.5640707439       17.3034841616        2.3093841706
CA         13.0411264925       18.9941187901        1.1410426995
HA         13.2540590037       19.2545627044        0.1029174497
CB         11.5479205793       19.2561189871        1.4111755262
HB2        11.3146615482       18.9586332570        2.4351038940
HB3        11.3653078926       20.3297515479        1.3417946676
CG         10.5919062818       18.5558951951        0.4594867155
CD1        10.2886540139       19.1434039060       -0.7849248887
HD1        10.7342772653       20.0915909812       -1.0601043070
CE1         9.4080325575       18.4986349953       -1.6751500812
HE1         9.1730640877       18.9444400060       -2.6318875456
CZ          8.8297497151       17.2600542110       -1.3250781150
OH          7.9857830842       16.6439544437       -2.1937970051
HH          7.6736249363       15.7917272213       -1.8518997093
CE2         9.1297932051       16.6712474877       -0.0770429919
HE2         8.6846400789       15.7234168119        0.1926651258
CD2        10.0068982576       17.3222815609        0.8141521401
HD2        10.2353294644       16.8705455783        1.7716748642
C          13.9094066981       19.8942693066        2.0381335449
O          14.2674089450       19.5111716633        3.1565839393
N          14.2251533059       21.1057972473        1.5637601417
H          13.8865631762       21.3518664412        0.6432775412
CH3        15.0280249163       22.0979943624        2.2794356413
HH31       16.0137273368       21.6882136962        2.5091785546
HH32       15.1524357057       22.9926312316        1.6663506962
HH33       14.5355642410       22.3763336844        3.2134267130
         110
Energy of minimum      5=    -153.1320666     first found at step      124 after                86269 function calls
HH31        1.0634559597       -1.6428825053        4.0125010781
CH3         1.7917684388       -1.5613423875        3.2069592419
HH32        1.2731300836       -1.4580543599        2.2550122182
HH33        2.4149116702       -2.4541663209        3.1864196297
C           2.6636848326       -0.3488823016        3.4345552929
O           2.4832643875        0.3666933822        4.4186658481
N           3.6108960493       -0.1163899231        2.5281954808
H           3.6790706824       -0.7499430931        1.7458450022
CA          4.5340460444        1.0247003527        2.5745977398
HA          4.9296797390        1.1016705706        3.5889325534
CB          5.7195371063        0.7603174078        1.6301643415