         110
Energy of minimum      1=    -156.3781576     first found at step      147 after               102587 function calls
HH31       -1.3476299257        7.1628349861       -3.2472317573
CH3        -1.1961220246        6.1777366198       -2.8085037124
HH32       -1.5710260173        5.4150079727       -3.4893518526
HH33       -1.7284786878        6.1145026457       -1.8605683251
C           0.2799592874        5.9568678734       -2.5750622846
O           0.7017535516        5.7468249850       -1.4388277036
N           1.0670489735        6.0015800476       -3.6480236239
H           0.6358066583        6.1917173830       -4.5402012644
CA          2.5252794690        5.8326162006       -3.6084270399
HA          2.7504879467        4.9648036075       -2.9859329571
CB          3.0422498833        5.5362131180       -5.0265467399
HB2         2.5610466231        4.6285442787       -5.3946661846
HB3         2.7492209712        6.3534851125       -5.6879649105
CG          4.5479103092        5.3520638223       -5.1092923596
CD1         5.1317032687        4.1358249724       -4.7027153263
HD1         4.5041802630        3.3194205380       -4.3652976527
CE1         6.5321147028        3.9800172344       -4.7273163486
HE1         6.9791483953        3.0466574712       -4.4133752274
CZ          7.3537221273        5.0457367505       -5.1561473580
OH          8.7055788726        4.9040506973       -5.1794789195
HH          8.9734397188        4.0261155472       -4.8791888243
CE2         6.7678732767        6.2619277010       -5.5673062426
HE2         7.4016985322        7.0738314036       -5.8962014512
CD2         5.3675965431        6.4134754593       -5.5448930957
HD2         4.9234734342        7.3524598531       -5.8528235396
C           3.2478881208        7.0472850560       -2.9924401945
O           2.8234227738        8.1943786985       -3.1648554417
N           4.3720630013        6.7963761650       -2.3143994044
H           4.6706272595        5.8342359050       -2.2336088732
CA          5.3105121666        7.8119961973       -1.8252562354
HA          5.2653036230        8.6821802488       -2.4824373751
CB          4.9063091589        8.2577614598       -0.4070847424
HB2         4.8967703057        7.3877534436        0.2518209917
HB3         3.8922136116        8.6593234218       -0.4358925607
CG          5.8307573214        9.3108569494        0.1781559218
CD1         5.6287933520       10.6733077216       -0.1198820619
HD1         4.7738864036       10.9784172373       -0.7114860401
CE1         6.5534721038       11.6380502418        0.3273745047
HE1         6.4141422729       12.6832510396        0.0884542032
CZ          7.6955951443       11.2363110015        1.0524651418
OH          8.6285326343       12.1514501363        1.4192932567
HH          9.4408825438       11.7009314858        1.6951117968
CE2         7.8862989497        9.8744630654        1.3684398184
HE2         8.7595859204        9.5672870344        1.9273851532
CD2         6.9458563421        8.9167936827        0.9453670334
HD2         7.1051849276        7.8699083330        1.1743475378
C           6.7580159866        7.2823877155       -1.8458695754
O           6.9952776304        6.0906830418       -1.6258020804
N           7.7286616405        8.1760789803       -2.0568049185
H           7.4636879503        9.1380513522       -2.2182453981
CA          9.1636857812        7.9056286846       -1.9207419099
HA2         9.3387807075        7.3464617751       -1.0006692901
HA3         9.5061265984        7.2988846756       -2.7593751092
C           9.9976104599        9.1923226186       -1.8768456819
O           9.5751415079       10.2291353144       -2.3976311941
N          11.1841529420        9.1284736553       -1.2653100011
H          11.4565093650        8.2441527470       -0.8603428974
CA         12.1107929606       10.2598933109       -1.1040510583
HA2        13.1239321095        9.8762386649       -0.9820816898
HA3        12.0997430227       10.8646995823       -2.0119920515
C          11.8073503860       11.1778298433        0.0916709679
O          11.0715501716       10.8135634949        1.0147051508
N          12.3980637597       12.3757795186        0.0827956135
H          12.9878438870       12.6061804150       -0.7051090898
CA         12.2188974242       13.4256781857        1.0963423612
HA         11.2402492186       13.3051436810        1.5623571277
CB         13.2924530531       13.2778438570        2.1861304962
HB2        14.2785477771       13.3770615190        1.7291073770
HB3        13.2285825941       12.2742046949        2.6095915400
CG         13.1634506606       14.2800919499        3.3187963833
CD1        14.0184264788       15.3992220169        3.3766859302
HD1        14.7828114318       15.5398629420        2.6218832970
CE1        13.8779074685       16.3420771304        4.4138943277
HE1        14.5301524362       17.2030987039        4.4633286116
CZ         12.8800201593       16.1689083492        5.3968142117
OH         12.7503868059       17.0793954848        6.3981687811
HH         12.0333705572       16.8419624095        7.0002532552
CE2        12.0248370490       15.0464438116        5.3392160601
HE2        11.2610148596       14.9105540431        6.0927525391
CD2        12.1679660918       14.1050459585        4.3006199793
HD2        11.5107263263       13.2446401090        4.2589273163
C          12.2594200655       14.8245899306        0.4546470959
O          12.9839899063       15.0401448997       -0.5224095089
N          11.4783724588       15.7679554347        0.9944510722
H          10.9841415416       15.5491216593        1.8473750869
CA         11.1923470557       17.0739087333        0.3802626138
HA         11.9971422089       17.3273702978       -0.3116290657
CB          9.8776366751       16.9909458100       -0.4226075693
HB2         9.7439207827       17.9207746170       -0.9776066141
HB3         9.0434189457       16.9084200137        0.2764297042
CG          9.8096288730       15.8249508967       -1.3958321825
CD1         9.2460472153       14.6018661025       -0.9801946125
HD1         8.8124046182       14.5130726055        0.0074292867
CE1         9.2889361214       13.4783663833       -1.8253263732
HE1         8.8828037004       12.5362373935       -1.4890397314
CZ          9.8778690767       13.5800289806       -3.1032276775
OH          9.9616097246       12.4861720482       -3.9042503047
HH          9.6789395336       11.6841067879       -3.4282491438
CE2        10.4017605685       14.8163855343       -3.5386823865
HE2        10.8506349692       14.8884993300       -4.5197202413
CD2        10.3742470993       15.9355661002       -2.6821522680
HD2        10.8118442209       16.8727809034       -3.0035385022
C          11.1072769120       18.1949525911        1.4308142236
O          10.7159917247       17.9560218124        2.5777462565
N          11.4435612488       19.4286165049        1.0340210245
H          11.7438716094       19.5469517752        0.0756720444
CH3        11.4108280804       20.6170530905        1.8872335221
HH31       11.7445933562       21.4914524123        1.3252994967
HH32       12.0682783675       20.4793317513        2.7481880193
HH33       10.3944495429       20.7946341278        2.2447094457
         110
Energy of minimum      2=    -155.5025804     first found at step      166 after               116093 function calls
HH31        6.0285387887        4.7749769983       -5.7223715686
CH3         5.1598357331        4.3760542955       -5.2007742591
HH32        5.3210585491        3.3220660631       -4.9794745843
HH33        4.2756691702        4.4864890814       -5.8269002425
C           4.9619702825        5.1331994640       -3.9085190329
O           3.9153612698        5.7467850093       -3.7052772753
N           5.9632413931        5.0897289607       -3.0319920396
H           6.7893564790        4.5696854967       -3.2870889934
CA          5.9547729387        5.7811352132       -1.7365173618
HA          4.9970514039        5.5847627435       -1.2510589674
CB          7.0623795368        5.1993413927       -0.8397761038
HB2         6.8859445208        4.1303851294       -0.7092684088
HB3         8.0232740681        5.3136146187       -1.3449684389
CG          7.1525732659        5.8461151637        0.5325530467
CD1         6.2634279074        5.4615067641        1.5552951985
HD1         5.5375206566        4.6772297257        1.3760840758
CE1         6.3112610131        6.0997846482        2.8110741542
HE1         5.6272961900        5.8044887348        3.5950154229
CZ          7.2485837536        7.1300792778        3.0452227094
OH          7.2969766625        7.7534646726        4.2520543414
HH          6.6443496426        7.3895936593        4.8637237948
CE2         8.1396168711        7.5135372810        2.0208836475
HE2         8.8554995628        8.3023354697        2.2036302449
CD2         8.0905961764        6.8709272404        0.7694955097
HD2         8.7661259342        7.1771633494       -0.0161464516
C           6.1054954667        7.3088913801       -1.8734256069
O           6.7954659214        7.8024193541       -2.7699296070
N           5.5099910638        8.0533994973       -0.9361832625
H           4.9413991496        7.5777632747       -0.2488088847
CA          5.8425632010        9.4502721936       -0.6397334307
HA          6.9088935391        9.5964856058       -0.8168991180
CB          5.0617895914       10.3981368156       -1.5672524062
HB2         3.9977088425       10.3340022884       -1.3335360027
HB3         5.1871995446       10.0699188384       -2.5999323849
CG          5.5090897909       11.8467702172       -1.4724902964
CD1         6.5374219342       12.3212906951       -2.3108684840
HD1         6.9875588938       11.6632563835       -3.0440023883
CE1         6.9842877669       13.6523343748       -2.1986603511
HE1         7.7671381050       14.0227419680       -2.8453346336
CZ          6.4110398630       14.5110526270       -1.2375633017
OH          6.8581626172       15.7879190170       -1.1180695333
HH          6.4383312690       16.2324719570       -0.3695902479
CE2         5.3784274837       14.0377178354       -0.3998428244
HE2         4.9369327449       14.6961769381        0.3358094654
CD2         4.9211029243       12.7116547856       -0.5272043125
HD2         4.1243067155       12.3544847181        0.1141739224
C           5.5527627549        9.7696062183        0.8389364628
O           4.5851721261        9.2608088682        1.4120187065
N           6.3592473589       10.6431933140        1.4454101393
H           7.1391934903       11.0171057224        0.9242983642
CA          6.1470522518       11.1812983096        2.7936255317
HA2         5.1327042047       11.5749871902        2.8705015361
HA3         6.2662459349       10.3897728951        3.5337598381
C           7.1436638406       12.2992539679        3.1097037677
O           8.3139808202       12.2002435891        2.7337171217
N           6.6887463234       13.3766207517        3.7602576933
H           5.7187679283       13.3891971634        4.0424878655
CA          7.4868628250       14.5896198242        3.9964441292
HA2         6.8931144503       15.3165690287        4.5508456915
HA3         8.3639859275       14.3402468102        4.5949879146
C           7.9325669823       15.2341933555        2.6780142398
O           7.1119566325       15.7946208343        1.9461827599
N           9.2203111477       15.0970795285        2.3531231547
H           9.8154815250       14.6242993994        3.0191553262
CA          9.7473763909       15.2211351234        0.9905990047
HA          8.9176997470       15.3451300155        0.2973858798
CB         10.6390499225       16.4629070826        0.8674527202
HB2        11.4616755984       16.3853117133        1.5802648815
HB3        10.0540974475       17.3451376284        1.1320251916
CG         11.2001985776       16.6555295673       -0.5295944211
CD1        12.5368399056       16.3087274245       -0.8114021593
HD1        13.1766982318       15.9255695752       -0.0254424692
CE1        13.0425739300       16.4514865236       -2.1184909701
HE1        14.0668958665       16.1860229899       -2.3413160109
CZ         12.2114117132       16.9401637841       -3.1491634666
OH         12.7035431999       17.0749557324       -4.4092451800
HH         12.0337539736       17.4179866175       -5.0148418504
CE2        10.8720190611       17.2866873111       -2.8663083055
HE2        10.2325132775       17.6596293100       -3.6546887044
CD2        10.3691972379       17.1423844068       -1.5581197874
HD2         9.3389375564       17.4016245013       -1.3452615868
C          10.4884077938       13.9340850670        0.5937231714
O          11.3035692724       13.4193912322        1.3652754520
N          10.2023787364       13.4104274626       -0.6017110821
H           9.5616035652       13.9082878260       -1.2035721467
CA         10.7277655573       12.1355455078       -1.1052369704
HA         11.7117706262       11.9582690137       -0.6677757167
CB          9.7859881419       11.0037707982       -0.6562003500
HB2         8.8119225730       11.1475023270       -1.1233130184
HB3         9.6399306025       11.0741802468        0.4226653296
CG         10.2843823514        9.6051009012       -0.9661189380
CD1        11.2505040059        9.0036995126       -0.1356738749
HD1        11.6311398060        9.5373133447        0.7271640209
CE1        11.7231836094        7.7075836623       -0.4227854353
HE1        12.4633336138        7.2467057646        0.2169992887
CZ         11.2291793758        7.0089909484       -1.5462058769
OH         11.6752476512        5.7562122160       -1.8266182926
HH         12.3338472821        5.4629846520       -1.1839290610
CE2        10.2615038548        7.6127890688       -2.3766819498
HE2         9.8819142151        7.0733888536       -3.2331072048
CD2         9.7904101211        8.9077613818       -2.0858647150
HD2         9.0465516136        9.3632431071       -2.7267558773
C          10.8928100951       12.1581479592       -2.6367594690
O          10.1729895774       12.8786231686       -3.3352120799
N          11.8311775654       11.3619462135       -3.1639131746
H          12.3619532174       10.7809484366       -2.5290518317
CH3        12.1181899207       11.2422297635       -4.5934418673
HH31       12.9349194968       10.5359237181       -4.7535472716
HH32       12.4061696225       12.2132476294       -5.0013864933
HH33       11.2337503688       10.8841868640       -5.1241975278
         110
Energy of minimum      3=    -155.4784358     first found at step      171 after               119071 function calls
HH31        6.0032750861        5.2625647604       -6.3442946343
CH3         5.2473818528        4.7155359175       -5.7828385854
HH32        5.5507764762        3.6743867093       -5.6837558412
HH33        4.2938049982        4.7696645928       -6.3060416733
C           5.1056012234        5.3274272680       -4.4088549996
O           4.0240546098        5.7868999452       -4.0450871973
N           6.1943098460        5.3322528478       -3.6424190933
H           7.0418197101        4.9424744074       -4.0268476793
CA          6.2474190380        5.9023202870       -2.2901701347
HA          5.3765041514        5.5477886702       -1.7358440139
CB          7.5045986216        5.3862004507       -1.5672915629
HB2         7.4665285584        4.2963439495       -1.5273668887
HB3         8.3858995865        5.6622153812       -2.1492872781
CG          7.6681375775        5.9168867655       -0.1525869268
CD1         6.9446664324        5.3371621216        0.9080807823
HD1         6.2980325383        4.4876420156        0.7227993271
CE1         7.0548431374        5.8642425768        2.2106619328
HE1         6.4979537515        5.4190876428        3.0238549612
CZ          7.8881223402        6.9783110378        2.4543925100
OH          7.9952777166        7.4950135879        3.7069627082
HH          7.4584677627        7.0010689782        4.3396703052
CE2         8.6134235057        7.5572709952        1.3918530917
HE2         9.2500375936        8.4096983355        1.5820652043
CD2         8.5030141337        7.0253998924        0.0932994575
HD2         9.0501107668        7.4805183507       -0.7196501116
C           6.2074336039        7.4430658495       -2.2891047364
O           6.7350336819        8.0939248581       -3.1954005464
N           5.6366018065        8.0241957033       -1.2290283739
H           5.2040529034        7.4241510767       -0.5399274248
CA          5.8385408224        9.4203407214       -0.8293769974
HA          6.8556258993        9.7118880222       -1.0946830576
CB          4.8586310223       10.3416615112       -1.5772551369
HB2         3.8406328114       10.1270657945       -1.2476620967
HB3         4.9068541598       10.1222028922       -2.6446808182
CG          5.1466956778       11.8205408543       -1.3836572859
CD1         6.0166406415       12.4888996925       -2.2679510626
HD1         6.4549261537       11.9575386114       -3.1038183210
CE1         6.3204185622       13.8496734525       -2.0680809050
HE1         6.9809740684       14.3682277618       -2.7485297968
CZ          5.7633940543       14.5443019966       -0.9740466789
OH          6.0749160743       15.8507063727       -0.7719806921
HH          5.6934522857       16.1728890625        0.0555687603
CE2         4.8886836088       13.8767485126       -0.0900993489
HE2         4.4593736858       14.4093115465        0.7475980170
CD2         4.5722234022       12.5209838430       -0.3035244937
HD2         3.8959772630       12.0142340728        0.3744972245
C           5.6772925526        9.5717248654        0.6949268033
O           4.8420950350        8.8995272217        1.3065884945
N           6.4404308088       10.4821792254        1.3032912930
H           7.1112910512       10.9934286629        0.7480825452
CA          6.3160865166       10.8710280201        2.7123982601
HA2         5.2777862732       11.1276644929        2.9265826625
HA3         6.6048332801       10.0392639564        3.3552933063
C           7.2066827041       12.0723445995        3.0389634932
O           8.3332870547       12.1516744669        2.5437170942
N           6.7044645465       13.0249591756        3.8334251762
H           5.7754551873       12.8930469213        4.2078697767
CA          7.3800834803       14.3019224106        4.1109031213
HA2         6.7702635131       14.8991156451        4.7890131010
HA3         8.3388193812       14.1114446856        4.5949792732
C           7.6060804644       15.1089669151        2.8263769133
O           6.6536414206       15.6260285239        2.2359714784
N           8.8589480148       15.1605430859        2.3677982400
H           9.5716370752       14.7078270113        2.9231870576
CA          9.2207666314       15.4706477167        0.9812253086
HA          8.3135324444       15.5548230898        0.3861412041
CB          9.9492648265       16.8179594593        0.9023196571
HB2        10.8474756159       16.7762805312        1.5206388896
HB3         9.3011999115       17.5940389629        1.3124673540
CG         10.3312521387       17.2058550519       -0.5144722073
CD1         9.3458177946       17.6849617267       -1.4001481135
HD1         8.3222493381       17.7979506365       -1.0634551768
CE1         9.6874485136       18.0115867919       -2.7271538606
HE1         8.9351886469       18.3790106956       -3.4115475524
CZ         11.0173115470       17.8568611963       -3.1736831963
OH         11.3424775723       18.1723282254       -4.4554659816
HH         12.2807230548       18.0219338278       -4.6289313449
CE2        12.0043956008       17.3748703267       -2.2862738933
HE2        13.0238089161       17.2538429508       -2.6265850901
CD2        11.6595215989       17.0495911507       -0.9593957921
HD2        12.4179626905       16.6731090024       -0.2832765294
C          10.0553635611       14.3247498756        0.3866965667
O          11.0031273720       13.8490068011        1.0192411365
N           9.7015562796       13.8761346215       -0.8210609688
H           8.9464165001       14.3417535766       -1.3044757153
CA         10.3088201551       12.7232443388       -1.4971932078
HA         11.3483091611       12.6302073183       -1.1780247784
CB          9.5548449818       11.4503738580       -1.0718321185
HB2         8.5255101976       11.5142138780       -1.4240463061
HB3         9.5209366138       11.4085623639        0.0178086282
CG         10.1700514180       10.1551183190       -1.5664032201
CD1        11.2830786867        9.6065776887       -0.8993310142
HD1        11.6937845199       10.1058190462       -0.0297355187
CE1        11.8641938572        8.4078912369       -1.3589368562
HE1        12.7173130699        7.9872192732       -0.8443706889
CZ         11.3315273192        7.7543512634       -2.4917636173
OH         11.8822057032        6.5946725737       -2.9378068664
HH         12.6362562174        6.3295196168       -2.3956955331
CE2        10.2166428705        8.3050315419       -3.1584231334
HE2         9.8083236135        7.7996651412       -4.0223589494
CD2         9.6375994097        9.5024293764       -2.6953903635
HD2         8.7813364798        9.9174087477       -3.2112655922
C          10.3024547772       12.8979230729       -3.0277956998
O           9.4352580059       13.5837692318       -3.5778657958
N          11.2605536505       12.2696418946       -3.7203811392
H          11.9186059667       11.7043364209       -3.2010247187
CH3        11.4011422965       12.3088154249       -5.1760479778
HH31       12.2704792827       11.7249716579       -5.4841543328
HH32       11.5303007449       13.3391903030       -5.5134665348
HH33       10.5104478014       11.8909758944       -5.6495501445
         110
Energy of minimum      4=    -155.0570088     first found at step      175 after               121643 function calls
HH31        2.2185587263        7.3394892541       -5.9654150611
CH3         1.8215009166        6.5368682988       -5.3457444091
HH32        2.0152442564        5.5781867223       -5.8245459250
HH33        0.7483018682        6.6709807248       -5.2183137974
C           2.4985514175        6.5667327381       -3.9955456689
O           1.8329448282        6.7254364654       -2.9733304106
N           3.8208674862        6.4114023536       -3.9873527850
H           4.2865515405        6.2972708724       -4.8751084362
CA          4.6456132818        6.4338130253       -2.7726211992
HA          4.1700533952        5.7960110287       -2.0253022042
CB          6.0297964621        5.8380962456       -3.0839040513
HB2         5.9024020553        4.8104839181       -3.4282652603
HB3         6.4821413475        6.4035230077       -3.9007831636
CG          6.9861686461        5.8377287253       -1.9027340377
CD1         6.8679481007        4.8581038136       -0.8974243485
HD1         6.1148566887        4.0834878809       -0.9797973098
CE1         7.7273949080        4.8859729553        0.2190817940
HE1         7.6423284098        4.1363932312        0.9937672715
CZ          8.7088125138        5.8941795581        0.3337459683
OH          9.5399349648        5.9119880790        1.4093685097
HH         10.1798108028        6.6323907901        1.3522583702
CE2         8.8260533351        6.8768910015       -0.6730298710
HE2         9.5761996634        7.6510591399       -0.5907689711
CD2         7.9640119270        6.8461389703       -1.7859231763
HD2         8.0486979030        7.6066886710       -2.5492116135
C           4.7790441948        7.8445132760       -2.1671048126
O           4.8323470252        8.8441825806       -2.8891012946
N           4.8967334946        7.9135607641       -0.8372050357
H           4.8218733621        7.0525746652       -0.3127442941
CA          5.3902897138        9.0781163140       -0.0956999460
HA          6.1525448920        9.5741285333       -0.6980059927
CB          4.2457955762       10.0752225213        0.1598362599
HB2         3.5227473657        9.6246248186        0.8419058362
HB3         3.7262394924       10.2699003098       -0.7793234039
CG          4.7082713474       11.4058724223        0.7287481487
CD1         4.8127726766       11.5850429039        2.1231721963
HD1         4.5370121731       10.7820338098        2.7961837454
CE1         5.2895530454       12.8024729089        2.6471719098
HE1         5.3818413267       12.9344380271        3.7166278296
CZ          5.6399227883       13.8561449345        1.7758577298
OH          6.0990919561       15.0329953104        2.2747081396
HH          6.2114914458       14.9823624843        3.2332643601
CE2         5.5169041169       13.6839873931        0.3812119205
HE2         5.7758984734       14.4976169685       -0.2815079987
CD2         5.0577215412       12.4587200748       -0.1402158150
HD2         4.9718118535       12.3293157629       -1.2121285099
C           6.0350907585        8.6360754345        1.2315329805
O           5.5768073005        7.6798970845        1.8634282510
N           7.0668239480        9.3543483341        1.6798182195
H           7.4000474642       10.1196768651        1.1115584057
CA          7.6928617888        9.1868112716        2.9962379961
HA2         6.9244671419        9.2264144433        3.7694595610
HA3         8.1882973479        8.2172671998        3.0534834849
C           8.7284702556       10.2822025874        3.2623244776
O           9.4748586728       10.6522670630        2.3529615298
N           8.7586490529       10.8309868469        4.4823007406
H           8.1224508009       10.4746131550        5.1815470595
CA          9.5819006706       11.9973765224        4.8363616854
HA2         9.4478845722       12.2329387001        5.8922539992
HA3        10.6352121808       11.7675026890        4.6705199884
C           9.1909210192       13.2303176265        4.0123966743
O           8.1354815077       13.8274548024        4.2411065947
N          10.0154269749       13.5680392685        3.0181750650
H          10.8542972397       13.0150493039        2.9080944081
CA          9.6389003318       14.4048507727        1.8749168988
HA          8.5639540690       14.5729054702        1.8960813385
CB         10.3223271117       15.7752464047        1.9612389883
HB2        11.4043611847       15.6351271096        1.9815477033
HB3        10.0334166827       16.2553634564        2.8974586471
CG          9.9559642803       16.6965355286        0.8119985754
CD1         8.6956270546       17.3259071473        0.7922248826
HD1         7.9991038015       17.1713939926        1.6075258134
CE1         8.3354321009       18.1517700404       -0.2905986906
HE1         7.3691840150       18.6367508377       -0.3114926559
CZ          9.2352076480       18.3484793252       -1.3599710417
OH          8.8832141127       19.1456047102       -2.4034753595
HH          9.5872803017       19.1954799730       -3.0628725710
CE2        10.4977131832       17.7161478177       -1.3407169115
HE2        11.1883026518       17.8640424582       -2.1597853594
CD2        10.8551470719       16.8911425899       -0.2558489663
HD2        11.8217807708       16.4015929201       -0.2479263605
C           9.9643809248       13.6790944167        0.5595433380
O          11.0593016664       13.1303460908        0.4027810045
N           9.0154503530       13.6688105511       -0.3808574501
H           8.1598925290       14.1768339981       -0.2056957842
CA          9.1081613835       12.9512217620       -1.6579912469
HA         10.1548677825       12.9013985186       -1.9629419606
CB          8.5919161856       11.5152145222       -1.4557813446
HB2         7.5349367329       11.5533160090       -1.1926383049
HB3         9.1190162373       11.0664364475       -0.6123332611
CG          8.7734755318       10.6041718809       -2.6551843780
CD1        10.0338699165       10.0323809946       -2.9183792391
HD1        10.8694373164       10.2358068751       -2.2591741499
CE1        10.2119017755        9.1951404500       -4.0378032753
HE1        11.1797589673        8.7558843659       -4.2374677204
CZ          9.1255971299        8.9290247737       -4.8999530704
OH          9.2878004873        8.1186678346       -5.9789262971
HH         10.1955234420        7.7955156472       -6.0453782162
CE2         7.8638247801        9.5019810349       -4.6345988386
HE2         7.0333571467        9.2925838534       -5.2941479294
CD2         7.6892158244       10.3368082727       -3.5138286053
HD2         6.7179128407       10.7716408658       -3.3161915455
C           8.3290990483       13.6782075116       -2.7705981252
O           7.3519440662       14.3815838772       -2.4956852637
N           8.7500565373       13.5022331733       -4.0292460374
H           9.5404043533       12.8890413564       -4.1764594113
CH3         8.1260764916       14.0996402771       -5.2099225486
HH31        8.6721633104       13.8093628235       -6.1094090159
HH32        8.1333998630       15.1884531643       -5.1284510817
HH33        7.0926476289       13.7589788505       -5.2999503116
         110
Energy of minimum      5=    -154.8106153     first found at step      163 after               113891 function calls
HH31        3.2270565651        6.0038491891       -7.5841698628
CH3         2.4899997698        5.5451709372       -6.9267372693
HH32        2.3599187576        4.4991593048       -7.2002348511
HH33        1.5397257161        6.0684473083       -7.0223670321
C           2.9730981536        5.6314680526       -5.4980105288
O           2.3075908417        6.2314747559       -4.6553048151
N           4.1293232030        5.0318166086       -5.2217721567
H           4.6137433632        4.5726782733       -5.9784988807
CA          4.7619327040        5.0316617150       -3.8965443759
HA          4.0001298526        4.7828816291       -3.1555378134
CB          5.8385295992        3.9337340937       -3.8455449131