         110
Energy of minimum      1=    -153.3086854     first found at step        0 after                 3411 function calls
HH31        2.9040050494        0.4678928429       -0.2163420844
CH3         2.9431292937        1.4408652831       -0.7039536798
HH32        2.0191876412        1.9837503391       -0.5103949622
HH33        3.0675097361        1.3065017281       -1.7774275859
C           4.1102072693        2.2319557910       -0.1615328719
O           4.8369124966        1.7448308107        0.7029980084
N           4.2879882220        3.4504708293       -0.6680853891
H           3.6294952027        3.7704113268       -1.3644119304
CA          5.3496000405        4.3858632700       -0.2737391007
HA          5.6411858010        4.1812300483        0.7578508968
CB          6.5787012499        4.1684810035       -1.1757821560
HB2         6.9384006954        3.1471395963       -1.0413417123
HB3         6.2737355780        4.2715271362       -2.2187037687
CG          7.7286520411        5.1237781568       -0.9041609817
CD1         7.9273156535        6.2458621713       -1.7348102045
HD1         7.2811947961        6.4115640463       -2.5885092005
CE1         8.9571506419        7.1635607230       -1.4492409010
HE1         9.1113382528        8.0279014201       -2.0801558239
CZ          9.7951132860        6.9602009318       -0.3322577666
OH         10.7870974935        7.8490565932       -0.0602421243
HH         11.2898939220        7.5879094276        0.7217563253
CE2         9.6014029600        5.8318667840        0.4948198827
HE2        10.2435509273        5.6734510435        1.3504398904
CD2         8.5677962056        4.9175220416        0.2087349728
HD2         8.4158902946        4.0571813183        0.8497326189
C           4.8735521398        5.8485110174       -0.3432883353
O           4.0356970855        6.2001656588       -1.1798022072
N           5.4386920513        6.7074075158        0.5102997726
H           6.1269551773        6.3465670589        1.1567184808
CA          5.2956906598        8.1662660361        0.4615485340
HA          5.1125852097        8.4695373777       -0.5707525949
CB          4.0924137692        8.6011159320        1.3133570129
HB2         3.2000049154        8.0875357451        0.9522059343
HB3         4.2546282149        8.2866846628        2.3457946500
CG          3.8272182231       10.0956049760        1.2816536584
CD1         4.2387364056       10.9127780781        2.3540833964
HD1         4.7309341059       10.4735841847        3.2136430284
CE1         4.0179892100       12.3037097050        2.3095516090
HE1         4.3355907181       12.9295816166        3.1324015509
CZ          3.3828411220       12.8814932788        1.1884629256
OH          3.1671811775       14.2228194134        1.1379058360
HH          3.4952720810       14.6632921142        1.9325396886
CE2         2.9701595029       12.0620554715        0.1159498807
HE2         2.4841156997       12.5100067170       -0.7399367928
CD2         3.1930085879       10.6717640771        0.1631950143
HD2         2.8767283648       10.0460398123       -0.6629622255
C           6.5896484164        8.8527212959        0.9350158654
O           7.2418248091        8.3816916772        1.8720161964
N           6.9563748441        9.9703299917        0.3029983028
H           6.3701586143       10.3184372516       -0.4436155696
CA          8.1610519350       10.7461321002        0.6155170912
HA2         8.0904156188       11.1281698308        1.6344345074
HA3         9.0360369086       10.0979995881        0.5559354418
C           8.3752697118       11.9323411396       -0.3318823294
O           7.5955964477       12.1500619651       -1.2648779014
N           9.4371419803       12.7050138497       -0.0958184436
H          10.0372598810       12.4714372995        0.6843406950
CA          9.8076728316       13.8817938821       -0.8910696260
HA2         9.9690813822       13.5827306707       -1.9273292202
HA3         8.9915216650       14.6048321470       -0.8708132358
C          11.0787605502       14.5756357334       -0.3865142470
O          11.6850382765       14.1469745974        0.6005634623
N          11.4837629591       15.6514672572       -1.0654473039
H          10.9266231687       15.9523345836       -1.8535473384
CA         12.6643113200       16.4639126626       -0.7406249779
HA         12.8609057351       16.3960247412        0.3308218316
CB         13.8842213130       15.9041615304       -1.4930530731
HB2        14.0234090724       14.8595823399       -1.2098298304
HB3        13.6788576080       15.9255524168       -2.5647961679
CG         15.1811400674       16.6461393401       -1.2221296566
CD1        15.6853371147       17.5619305100       -2.1682171833
HD1        15.1580079756       17.7255115695       -3.1004500496
CE1        16.8734304902       18.2716196409       -1.9035791193
HE1        17.2591668391       18.9732693242       -2.6304935807
CZ         17.5618655137       18.0653252068       -0.6880113908
OH         18.7134034059       18.7400609357       -0.4289461484
HH         18.9515272414       19.3260016128       -1.1586917778
CE2        17.0568549841       17.1471016849        0.2576233948
HE2        17.5895400411       16.9919576781        1.1857921959
CD2        15.8679139155       16.4399358164       -0.0094026028
HD2        15.4828995463       15.7366692586        0.7194612417
C          12.4384337113       17.9485666933       -1.0814600390
O          11.6989808206       18.2724803164       -2.0162570949
N          13.0868846260       18.8496160742       -0.3372964729
H          13.6995413143       18.5112724234        0.3921420865
CA         13.0827577416       20.2993477681       -0.5681716192
HA         12.9744320455       20.4866507374       -1.6378337898
CB         11.8828778440       20.9293443941        0.1595858400
HB2        10.9699165263       20.4285645091       -0.1665090913
HB3        11.9851392990       20.7522081462        1.2316433099
CG         11.7156320334       22.4178057143       -0.0887670267
CD1        12.0893091293       23.3502043942        0.9002694114
HD1        12.4876404455       23.0069183215        1.8475774067
CE1        11.9513660403       24.7316611845        0.6591680363
HE1        12.2396860726       25.4457982055        1.4184801425
CZ         11.4375530511       25.1844176580       -0.5757776007
OH         11.3022081954       26.5156817521       -0.8159861111
HH         11.5932085741       27.0420425558       -0.0600376749
CE2        11.0630465320       24.2498631774       -1.5649465580
HE2        10.6692542964       24.6022312741       -2.5084915700
CD2        11.2021614544       22.8693355555       -1.3207876477
HD2        10.9125178843       22.1547229219       -2.0821168924
C          14.4077077845       20.9365751200       -0.1082324230
O          15.0205699935       20.4764605732        0.8606815050
N          14.8437798740       22.0043470885       -0.7883165167
H          14.2714587543       22.3382841010       -1.5517621140
CH3        16.0707912185       22.7416168176       -0.4868284305
HH31       16.9300381102       22.0685981937       -0.5158056500
HH32       16.2199457573       23.5364620153       -1.2199455455
HH33       16.0044563059       23.1871080287        0.5077441104
         110
Energy of minimum      2=    -153.1320666     first found at step        0 after                50372 function calls
HH31       -1.7121106368        3.0857599083        1.2396117768
CH3        -1.7148280653        3.9702288855        0.6043392510
HH32       -2.7007717223        4.4322191595        0.6259170068
HH33       -1.4676960681        3.6848860046       -0.4171119287
C          -0.6850935025        4.9524297495        1.1113163817
O          -1.0275241495        6.0790902565        1.4669159249
N           0.5766111210        4.5287215821        1.1476858181
H           0.7677620697        3.5919363920        0.8251885411
CA          1.7101861908        5.3515052128        1.5886855428
HA          1.4310756418        5.8435926105        2.5221055144
CB          2.9161585164        4.4424855415        1.8828892684
HB2         2.6412215346        3.7346041724        2.6666054951
HB3         3.1500801815        3.8644837077        0.9870802593
CG          4.1626905714        5.1916755151        2.3229943093
CD1         5.1891423998        5.4633952589        1.3950588009
HD1         5.1072122470        5.1090041273        0.3745496956
CE1         6.3174936626        6.2099735129        1.7871631049
HE1         7.1053296834        6.4251861035        1.0787011857
CZ          6.4249247206        6.6852462540        3.1114462624
OH          7.5151799461        7.4063065262        3.4849395534
HH          7.4682218530        7.6601121249        4.4154762291
CE2         5.4008131635        6.4059493737        4.0430251023
HE2         5.4819164525        6.7682514060        5.0587493489
CD2         4.2712560495        5.6621320201        3.6467166923
HD2         3.4827910061        5.4571729996        4.3611738299
C           2.0770091176        6.4524625963        0.5737822327
O           1.9719755564        6.2585157305       -0.6415535628
N           2.5626599376        7.5916848561        1.0762728114
H           2.6344955052        7.6713705236        2.0811577842
CA          3.1844443951        8.6648902028        0.2936178843
HA          3.6239192785        8.2358944640       -0.6085229689
CB          2.1176651708        9.6877185581       -0.1287095581
HB2         1.3354150463        9.1716601150       -0.6876002614
HB3         1.6556990110       10.1102558445        0.7652430936
CG          2.6564725629       10.8136944708       -0.9928567767
CD1         2.9168775517       12.0791113581       -0.4291427509
HD1         2.7164092697       12.2587082525        0.6203307679
CE1         3.4457409575       13.1124201197       -1.2274362010
HE1         3.6493640593       14.0847481749       -0.8002630064
CZ          3.7159472384       12.8831400787       -2.5935591948
OH          4.2276271899       13.8828714002       -3.3596728527
HH          4.3641103723       13.5942609622       -4.2713741841
CE2         3.4533842965       11.6156723008       -3.1582056622
HE2         3.6593208644       11.4376964341       -4.2049361452
CD2         2.9250430282       10.5840386433       -2.3569174996
HD2         2.7263565530        9.6115099071       -2.7915940209
C           4.3132095473        9.3360599920        1.0967627886
O           4.1953786046        9.5163863572        2.3128573743
N           5.3998599769        9.7194179753        0.4220506907
H           5.4292162704        9.5632395781       -0.5764450210
CA          6.5704093675       10.3642718134        1.0259171141
HA2         6.2736811508       11.3212813979        1.4562950420
HA3         6.9571278850        9.7361759502        1.8291162896
C           7.7028098086       10.6152725274        0.0233096269
O           7.5984980618       10.2617802585       -1.1556554082
N           8.7926769289       11.2277045631        0.4896128319
H           8.8152286720       11.4905279760        1.4662181117
CA          9.9769251683       11.5529258663       -0.3143168002
HA2        10.3926234035       10.6364109345       -0.7344569645
HA3         9.6869529865       12.2027950554       -1.1406853632
C          11.0773220703       12.2568030186        0.4890137866
O          10.9244795484       12.5059920101        1.6890975664
N          12.1904602769       12.5786085780       -0.1741120912
H          12.2363489710       12.3569449023       -1.1593956992
CA         13.3532885036       13.2653982522        0.4049146187
HA         13.0222502995       13.8891696512        1.2371426377
CB         14.3402517726       12.2169109051        0.9488243755
HB2        13.8327976129       11.6132245225        1.7029748951
HB3        14.6283588858       11.5476552187        0.1361926723
CG         15.5938646184       12.8049320687        1.5726856577
CD1        16.8051555142       12.8175804431        0.8512707558
HD1        16.8523277915       12.3840174042       -0.1404490664
CE1        17.9560370968       13.4040139737        1.4133308149
HE1        18.8871117556       13.4195039028        0.8638546128
CZ         17.8995554875       13.9787893009        2.7009847374
OH         19.0136191954       14.5405103509        3.2409333349
HH         18.8391631823       14.8921447900        4.1233473937
CE2        16.6874345893       13.9607239342        3.4256525437
HE2        16.6426840552       14.3986342816        4.4134922012
CD2        15.5371579060       13.3756364160        2.8596682437
HD2        14.6069723325       13.3675367021        3.4154462899
C          14.0378450201       14.1845994832       -0.6238390825
O          14.0140409058       13.9084519716       -1.8274368231
N          14.6680126934       15.2633594304       -0.1492555497
H          14.6678734792       15.4107394774        0.8508200331
CA         15.4947454100       16.1798116097       -0.9432749449
HA         15.9436235692       15.6253960930       -1.7691876648
CB         14.6097697580       17.2922894168       -1.5299217400
HB2        13.7976098945       16.8346119148       -2.0969873181
HB3        14.1576633069       17.8552770098       -0.7115264638
CG         15.3449956300       18.2497373473       -2.4506452447
CD1        15.7083382895       19.5341219236       -1.9973336272
HD1        15.4540614934       19.8472116460       -0.9917306856
CE1        16.4076355553       20.4135195844       -2.8477654951
HE1        16.6867511418       21.3981587822       -2.4981130755
CZ         16.7458411141       20.0083342763       -4.1575532291
OH         17.4210540255       20.8509418675       -4.9836236495
HH         17.6074654943       21.6945736670       -4.5514992456
CE2        16.3809372352       18.7223260104       -4.6104778289
HE2        16.6418120207       18.4176351519       -5.6147773039
CD2        15.6817865252       17.8454624020       -3.7577532526
HD2        15.4024262745       16.8592514906       -4.1092074248
C          16.6359170678       16.7669703915       -0.0913758934
O          16.4596948393       17.0116643660        1.1066833589
N          17.8000986663       17.0083443072       -0.7070869684
H          17.8572122213       16.8081093536       -1.6962290222
CH3        18.9894694511       17.5564872055       -0.0552425943
HH31       19.2954618215       16.9104297342        0.7702958410
HH32       18.7760296991       18.5530969274        0.3361791490
HH33       19.8102425419       17.6270563131       -0.7713262049
         110
Energy of minimum      3=    -153.1212225     first found at step        0 after                45166 function calls
HH31       -0.3533878494        1.9455543010       -1.0974201432
CH3        -0.5691319314        2.9386224024       -0.7060967807
HH32       -1.3101639263        2.8648742152        0.0885214488
HH33       -0.9536396184        3.5690784652       -1.5064321833
C           0.7007941571        3.5462949585       -0.1582657496
O           0.7699620847        3.8715698303        1.0260006417
N           1.7076486893        3.6989305608       -1.0159927929
H           1.5579676324        3.4147868098       -1.9725323938
CA          3.0053891162        4.2909682673       -0.6669871535
HA          3.3458592170        3.8391778339        0.2664424212
CB          4.0343757542        3.9426546430       -1.7565278488
HB2         4.1245710297        2.8570900888       -1.8221944562
HB3         3.6641739467        4.2991925926       -2.7193938220
CG          5.4149205868        4.5291782882       -1.5137933489
CD1         5.8087932459        5.7092115354       -2.1777866992
HD1         5.1413336301        6.1817792635       -2.8883660576
CE1         7.0650470120        6.2866667818       -1.9082023223
HE1         7.3703497580        7.1938140001       -2.4109850146
CZ          7.9343725922        5.6832733634       -0.9747486243
OH          9.1453141983        6.2447792079       -0.7170450691
HH          9.6428838167        5.7285435073       -0.0701731761
CE2         7.5432774745        4.4968532704       -0.3158875219
HE2         8.2086432802        4.0322248019        0.3989171668
CD2         6.2841610469        3.9236505351       -0.5847545324
HD2         5.9830524932        3.0183574285       -0.0710303571
C           2.9240751208        5.8142678254       -0.4442329816
O           2.1561227848        6.5150493137       -1.1111945640
N           3.7619568169        6.3324484744        0.4588840720
H           4.3726643398        5.6979413230        0.9545989514
CA          4.0132977717        7.7636888698        0.6571450754
HA          3.8317825968        8.2883605550       -0.2824321080
CB          3.0478422087        8.3209950815        1.7153363238
HB2         2.0230120145        8.1230768121        1.3973041760
HB3         3.2058535335        7.7908142566        2.6561041616
CG          3.1930705628        9.8135433372        1.9521668864
CD1         3.8983515283       10.2888553240        3.0764011973
HD1         4.3247944087        9.5893339444        3.7854871304
CE1         4.0573287116       11.6742024747        3.2787311202
HE1         4.5999491654       12.0373440600        4.1409121910
CZ          3.5089832555       12.5895682123        2.3537959621
OH          3.6589779798       13.9276165012        2.5418222322
HH          4.1593533253       14.1171479990        3.3460630372
CE2         2.8019531609       12.1124330253        1.2292903148
HE2         2.3840532146       12.8180510480        0.5243787572
CD2         2.6453932112       10.7266657727        1.0294495754
HD2         2.1037782059       10.3639448167        0.1639001543
C           5.4797449782        8.0047539494        1.0583124077
O           6.0598321163        7.2191458374        1.8143593882
N           6.0773286747        9.0935577133        0.5680123025
H           5.5439835171        9.7100725112       -0.0300704906
CA          7.4684719146        9.4719761258        0.8367940551
HA2         7.5905527865        9.6657598639        1.9029398870
HA3         8.1282765670        8.6477426866        0.5638932411
C           7.9123666424       10.7198175673        0.0645360962
O           7.1424973427       11.2948400501       -0.7116222699
N           9.1601359167       11.1433470775        0.2743360448
H           9.7402492816       10.6266302519        0.9222659648
CA          9.7646542704       12.3147750348       -0.3712933365
HA2         9.7477312956       12.1811551819       -1.4535065735
HA3         9.1799690949       13.2034088179       -0.1309408336
C          11.2152598192       12.5609422580        0.0609155767
O          11.7665543876       11.8191455992        0.8803482141
N          11.8357258351       13.6061694098       -0.4912561845
H          11.3143053222       14.1775626714       -1.1421455506
CA         13.2159553795       14.0207766706       -0.2045649521
HA         13.4791622541       13.7111948447        0.8084310897
CB         14.1691690496       13.3185106379       -1.1881655036
HB2        14.0586266593       12.2387742799       -1.0757384671
HB3        13.8738371234       13.5713609327       -2.2080308057
CG         15.6339566090       13.6707334035       -0.9961908518
CD1        16.2582543456       14.5975394408       -1.8559048949
HD1        15.7024326481       15.0418215764       -2.6728420781
CE1        17.6043378065       14.9574777006       -1.6489081348
HE1        18.0877790880       15.6699188038       -2.3029543004
CZ         18.3317732241       14.3896135925       -0.5812110318
OH         19.6316901102       14.7372350373       -0.3873341045
HH         20.0108909507       14.2757059659        0.3715687660
CE2        17.7077050449       13.4568556974        0.2762321665
HE2        18.2641278771       13.0188360828        1.0936228938
CD2        16.3602316275       13.1007272622        0.0681685895
HD2        15.8820123956       12.3887535201        0.7304367628
C          13.3748236844       15.5507385252       -0.2811372132
O          12.6705463646       16.2183775028       -1.0451534145
N          14.3153907010       16.1026998798        0.4913501487
H          14.8716173451       15.4900288606        1.0719688022
CA         14.7175092713       17.5137808836        0.4598922662
HA         14.5661512048       17.9020884555       -0.5487248586
CB         13.8360392342       18.3206915791        1.4278010552
HB2        12.7884830181       18.1594437031        1.1684544381
HB3        13.9819967885       17.9419363533        2.4408986736
CG         14.1005691759       19.8155681344        1.4087491114
CD1        14.8389292736       20.4202624915        2.4462087510
HD1        15.2117430702       19.8208651358        3.2681889194
CE1        15.0993199737       21.8047738113        2.4159332595
HE1        15.6669780862       22.2670369959        3.2120197584
CZ         14.6199645757       22.5894882935        1.3442318614
OH         14.8677731285       23.9257326876        1.3077067471
HH         15.3810599734       24.2105467248        2.0749177853
CE2        13.8802669075       21.9829794617        0.3063941985
HE2        13.5149096330       22.5889320096       -0.5114356363
CD2        13.6216064969       20.5984826497        0.3396199716
HD2        13.0525493712       20.1364264080       -0.4584105431
C          16.2104202345       17.6666484588        0.8071767507
O          16.7405296709       16.9155379094        1.6324602882
N          16.8865576276       18.6455334875        0.1929274898
H          16.3756368303       19.2368197048       -0.4482423293
CH3        18.3068475770       18.9313289399        0.3955650206
HH31       18.9046627027       18.0506404042        0.1515563091
HH32       18.4888180656       19.2047080006        1.4367897376
HH33       18.6179137830       19.7580005265       -0.2457431892
         110
Energy of minimum      4=    -152.9984868     first found at step        0 after                21313 function calls
HH31        0.8700186627        1.4807066558       -0.8532403009
CH3         0.6290501288        2.4040190825       -0.3285574801
HH32        0.0353777443        2.1771520571        0.5557896174
HH33        0.0642900252        3.0605340750       -0.9887785172
C           1.9087871018        3.0922837041        0.0845553102
O           2.1369752682        3.3120224769        1.2731341640
N           2.7462353614        3.4318704264       -0.8932537810
H           2.4717201300        3.2230257240       -1.8414812272
CA          4.0228018763        4.1260885657       -0.6813979406
HA          4.5491574159        3.6293059114        0.1355978716
CB          4.8910703461        3.9937279591       -1.9446579630
HB2         5.0695670249        2.9351006456       -2.1404762529
HB3         4.3395699504        4.3957202277       -2.7964379259
CG          6.2324266275        4.7013259437       -1.8503013551
CD1         6.4035980466        5.9734915894       -2.4340789054
HD1         5.5898009668        6.4347597323       -2.9806239077
CE1         7.6279724404        6.6561625385       -2.2956184776
HE1         7.7632619717        7.6336989808       -2.7372465971
CZ          8.6880554363        6.0666247794       -1.5746361787
OH          9.8674690601        6.7297025376       -1.4427624287
HH         10.5081266931        6.2127143080       -0.9379858028
CE2         8.5193793463        4.7889141752       -0.9970117378
HE2         9.3310639460        4.3348866474       -0.4451382629
CD2         7.2919135965        4.1100755589       -1.1338751015
HD2         7.1623330636        3.1338152474       -0.6819247637
C           3.8378073822        5.6043905195       -0.2850733601
O           2.9111857625        6.2766383649       -0.7489037792
N           4.7583587696        6.1243531008        0.5324845252
H           5.4968130842        5.5165367365        0.8588905813
CA          4.9048446508        7.5498351187        0.8446880861
HA          4.5269853754        8.1365410749        0.0056220427
CB          4.0746215569        7.8988649013        2.0902287273
HB2         3.0347548091        7.6214610322        1.9104589153
HB3         4.4300773713        7.3040409988        2.9334007905
CG          4.1173825239        9.3699614905        2.4629579968
CD1         4.9471441528        9.8126290864        3.5130944867
HD1         5.5448172801        9.1007257800        4.0698414456
CE1         5.0077896230       11.1823044886        3.8382236993
HE1         5.6459735514       11.5206126867        4.6431670852
CZ          4.2356868364       12.1146482967        3.1111238381
OH          4.2895811430       13.4378602395        3.4184198582
HH          4.8929930967       13.6051227340        4.1539590474
CE2         3.4043305857       11.6700119975        2.0607867646
HE2         2.8151611363       12.3884883936        1.5075162687
CD2         3.3464997348       10.2999517847        1.7376938355
HD2         2.7087258362        9.9624805811        0.9293334042
C           6.3880385222        7.9100796383        1.0443739589
O           7.1522007603        7.1252628747        1.6148181251
N           6.7957931617        9.0979113977        0.5907379155
H           6.1185812562        9.7057859374        0.1501443472
CA          8.1710118536        9.5982230454        0.6865733573
HA2         8.4443591819        9.7044673564        1.7368668510
HA3         8.8517557995        8.8791468140        0.2297422505
C           8.3677278335       10.9529514910       -0.0037494454
O           7.4333276249       11.5106212125       -0.5882772588
N           9.5883956741       11.4878751458        0.0606372630
H          10.3103386922       10.9792437598        0.5540287016
CA          9.9703642974       12.7726381314       -0.5376958461
HA2         9.7922942926       12.7388017312       -1.6130897729
HA3         9.3521935577       13.5665923198       -0.1172222309
C          11.4424719553       13.1333912409       -0.3044397730
O          12.1844470404       12.3829407149        0.3373888762
N          11.8667813379       14.2863586233       -0.8269516567
H          11.1969855387       14.8557200177       -1.3261799897
CA         13.2307752929       14.8198518783       -0.7078878060
HA         13.6813100605       14.4463579388        0.2134031805
CB         14.0727452109       14.3211155799       -1.8953213608
HB2        14.0654992538       13.2299354308       -1.8980884258
HB3        13.6044047482       14.6514320719       -2.8241988056
CG         15.5182389425       14.7860083443       -1.8765810796
CD1        15.9341539888       15.8432979286       -2.7115200384
HD1        15.2270981958       16.3155269929       -3.3830591329
CE1        17.2687266986       16.2934788787       -2.6726535923
HE1        17.5863214447       17.1041567703       -3.3140928622
CZ         18.1928892471       15.6843057071       -1.7957632216
OH         19.4844019010       16.1074255578       -1.7585161616
HH         19.6384051425       16.8279447453       -2.3827702953
CE2        17.7755942072       14.6249197517       -0.9615201474
HE2        18.4883623315       14.1611114314       -0.2935652721
CD2        16.4401127785       14.1778922168       -1.0018076797
HD2        16.1233770075       13.3650612818       -0.3591205885
C          13.2306510181       16.3582030696       -0.6381630060
O          12.3553015443       17.0125109027       -1.2136630485
N          14.2194856970       16.9365921876        0.0501901366
H          14.9187900164       16.3395100228        0.4701560312
CA         14.4501856619       18.3830830803        0.1475758383
HA         14.1077094274       18.8584532226       -0.7731452018
CB         13.6349737640       18.9527664017        1.3210872367
HB2        12.5865790709       18.6817700010        1.1867504814
HB3        13.9744135121       18.4872836613        2.2480437347
CG         13.7150264044       20.4625714112        1.4598242541
CD1        14.5145729388       21.0429118506        2.4653714831
HD1        15.0672485382       20.4121845700        3.1514023528
CE1        14.6024234638       22.4446739571        2.5790652558
HE1        15.2172707874       22.8884097361        3.3502566968
CZ         13.8881586533       23.2711883812        1.6842006664
OH         13.9684926409       24.6244153258        1.7871853171
HH         14.5468273471       24.8892795484        2.5142140502
CE2        13.0873565117       22.6889336197        0.6783190800
HE2        12.5417891248       23.3267415649       -0.0036413305
CD2        13.0015961226       21.2870971949        0.5673106599
HD2        12.3848765034       20.8436146840       -0.2054552089
C          15.9500235382       18.6943386930        0.3109831833
O          16.6870889174       17.9177484802        0.9272153709
N          16.4017294779       19.8357712415       -0.2237165172
H          15.7307436181       20.4322460395       -0.6883781398
CH3        17.7882288045       20.2974149972       -0.1564625648
HH31       18.4549643824       19.5477323589       -0.5872043880
HH32       18.0749226208       20.4696385436        0.8828559566
HH33       17.8998338074       21.2302526908       -0.7122006304
         110
Energy of minimum      5=    -152.9588522     first found at step        0 after                  645 function calls
HH31        2.2700490648        0.7961731837        0.4601815893
CH3         2.3824913391        1.7179813550       -0.1086744615
HH32        1.5392940951        2.3768499532        0.0932336322
HH33        2.4175872003        1.4884370135       -1.1726042665
C           3.6638642609        2.4086029772        0.2953446415
O           4.3900040277        1.9086435149        1.1529867325
N           3.9395050469        3.5561782205       -0.3211725758
H           3.2739890682        3.8956447509       -1.0013911692
CA          5.1218312903        4.3909313738       -0.0701876636
HA          5.4599246181        4.2315320207        0.9551510209
CB          6.2528265876        3.9663262861       -1.0237428487