         110
Energy of minimum      1=    -153.4255761     first found at step        0 after                50829 function calls
HH31        4.0112389785       -0.2821144715        3.2426480219
CH3         3.9764653894       -0.4140803407        2.1622623710
HH32        3.0034498937       -0.0984091086        1.7888151599
HH33        4.1390247131       -1.4626019232        1.9170112179
C           5.0542491703        0.4283275900        1.5212893044
O           5.9339430507       -0.1044542450        0.8466878246
N           4.9857497012        1.7411952082        1.7326348668
H           4.2342433323        2.0848423836        2.3140043497
CA          5.9356100282        2.7340845294        1.2135743081
HA          6.9080209787        2.2589925282        1.0729349467
CB          5.4429348818        3.2413286854       -0.1544902744
HB2         5.3967890264        2.3992781579       -0.8468902285
HB3         4.4280387838        3.6272202030       -0.0432172314
CG          6.3145996030        4.3233470894       -0.7694648462
CD1         7.5326518091        3.9793386199       -1.3885356408
HD1         7.8300864347        2.9397462503       -1.4586785640
CE1         8.3695764978        4.9854054331       -1.9116034204
HE1         9.3051413662        4.7201705452       -2.3847882281
CZ          7.9901007767        6.3421641064       -1.8119886437
OH          8.7941313843        7.3186343205       -2.3101156756
HH          9.5906801235        6.9488046632       -2.7116870647
CE2         6.7679090326        6.6854854934       -1.1958994373
HE2         6.4814520848        7.7255473041       -1.1243025675
CD2         5.9317151450        5.6773951845       -0.6774261809
HD2         4.9986525859        5.9471533188       -0.1974718313
C           6.1256773034        3.9060868985        2.1939223358
O           5.1991515816        4.2762301748        2.9219068932
N           7.3154575783        4.5143570048        2.1825309203
H           8.0197207878        4.1620107027        1.5487845905
CA          7.6281322065        5.7742266109        2.8652151489
HA          6.7163685306        6.3686201360        2.9460240039
CB          8.1432463821        5.4846588296        4.2841425628
HB2         7.3929961702        4.9010651306        4.8199889501
HB3         9.0454883885        4.8741855668        4.2178871412
CG          8.4427885115        6.7332988446        5.0940831218
CD1         9.7715467220        7.1782697997        5.2477937795
HD1        10.5861655441        6.6198904757        4.8021466580
CE1        10.0448851402        8.3536850845        5.9751783399
HE1        11.0646828809        8.6946593262        6.0910128940
CZ          8.9859185271        9.0883437805        6.5521993283
OH          9.2417168607       10.2238284579        7.2546686949
HH         10.1881031897       10.4151351957        7.2839611401
CE2         7.6560945872        8.6410648299        6.3986460394
HE2         6.8491606818        9.2076212102        6.8428447423
CD2         7.3860585562        7.4658332658        5.6701439448
HD2         6.3637130983        7.1266027509        5.5525328411
C           8.6543351655        6.5877259074        2.0559899068
O           9.5808507303        6.0202016411        1.4689142892
N           8.5034732206        7.9142709353        2.0335630789
H           7.7367833871        8.3227574394        2.5508503129
CA          9.3800001280        8.8394371934        1.3079236405
HA2        10.3886093739        8.7779672595        1.7178793815
HA3         9.4225201915        8.5507301065        0.2571787341
C           8.9135724608       10.2977201158        1.3879496624
O           7.8808229391       10.6029006943        1.9929841808
N           9.6748467656       11.2059932546        0.7749034110
H          10.5079219171       10.8900537136        0.2958267627
CA          9.3931835652       12.6461262049        0.7400336031
HA2         9.3541336676       13.0328053393        1.7589798127
HA3         8.4202018275       12.8139983928        0.2769450652
C          10.4424048412       13.4478502240       -0.0397333728
O          11.4116500842       12.8854984971       -0.5593285980
N          10.2494103974       14.7663179331       -0.1219991694
H           9.4412031581       15.1572037088        0.3427959985
CA         11.1396221544       15.7118838188       -0.8094245698
HA         12.1564839092       15.3153733687       -0.8022216745
CB         10.6877161651       15.8581733867       -2.2735452661
HB2        10.7211269909       14.8781311885       -2.7521796692
HB3         9.6492254347       16.1935960757       -2.2910890108
CG         11.5311482903       16.8186923061       -3.0936342086
CD1        12.8008519882       16.4199668016       -3.5563596807
HD1        13.1618142043       15.4187087908       -3.3529185787
CE1        13.6052391705       17.3218795393       -4.2811474904
HE1        14.5797201825       17.0147941473       -4.6356625427
CZ         13.1403060967       18.6297248823       -4.5420770444
OH         13.9102736662       19.5049966239       -5.2415486781
HH         14.7516150727       19.1069127235       -5.4992499182
CE2        11.8670674826       19.0269847549       -4.0809309647
HE2        11.5158145319       20.0290147014       -4.2849417589
CD2        11.0642083460       18.1223128466       -3.3588995183
HD2        10.0905037901       18.4347747616       -3.0011620017
C          11.1670463365       17.0797361179       -0.1022332454
O          10.1763561078       17.4906949925        0.5102364633
N          12.2914171488       17.7945437732       -0.2066503728
H          13.0522706473       17.4051673102       -0.7464295246
CA         12.4680110771       19.1711896613        0.2703106130
HA         11.5071363690       19.6866950812        0.2258791840
CB         12.9406389459       19.1510383324        1.7335764734
HB2        12.2304098580       18.5715725017        2.3255491459
HB3        13.9032273156       18.6396835877        1.7889397789
CG         13.0667442975       20.5262718582        2.3643136793
CD1        14.3357088955       21.1140498061        2.5404191126
HD1        15.2287948965       20.5817923705        2.2356600336
CE1        14.4462654472       22.3983282745        3.1090352240
HE1        15.4169873075       22.8549060422        3.2455041144
CZ         13.2867884964       23.0996333107        3.5036448924
OH         13.3983530105       24.3389777867        4.0512751934
HH         12.5329620918       24.7048694814        4.2758174409
CE2        12.0156803334       22.5101002443        3.3274883572
HE2        11.1257082874       23.0451227853        3.6299798376
CD2        11.9085043284       21.2254111238        2.7586111376
HD2        10.9322503781       20.7742953951        2.6254193754
C          13.4592182961       19.9388721817       -0.6246277433
O          14.4241701865       19.3570419293       -1.1312025920
N          13.2346540586       21.2458784460       -0.8089779465
H          12.4399251290       21.6557032898       -0.3376045356
CH3        14.0657337202       22.1264059074       -1.6299343179
HH31       15.0796644113       22.1669326993       -1.2270632461
HH32       14.1073771432       21.7532842754       -2.6554018006
HH33       13.6487261413       23.1351016327       -1.6378721337
         110
Energy of minimum      2=    -153.3083418     first found at step        0 after                30681 function calls
HH31        1.7065774135        1.4374119114        2.1996070551
CH3         2.1226705817        1.7820013746        3.1451188454
HH32        2.0595863776        0.9844908175        3.8840150392
HH33        1.5628320268        2.6483621504        3.4941954073
C           3.5683971640        2.1702852927        2.9421061457
O           4.4548995659        1.6005458884        3.5763669944
N           3.8044884306        3.1391247679        2.0597118620
H           3.0093002601        3.5587019058        1.5987540976
CA          5.1301433546        3.6747589774        1.7226778015
HA          5.7944534971        3.5470337227        2.5790676729
CB          5.7096227035        2.8812107200        0.5384602475
HB2         5.7699576629        1.8278234641        0.8167248445
HB3         5.0226348697        2.9552680294       -0.3064253036
CG          7.0891136359        3.3364638761        0.0954729581
CD1         8.2236347291        2.9758626177        0.8489537597
HD1         8.1147874971        2.3552784659        1.7304594677
CE1         9.5017017786        3.4214795634        0.4577714164
HE1        10.3764904361        3.1469385258        1.0310648448
CZ          9.6486572975        4.2318983920       -0.6885401100
OH         10.8847151620        4.6539715488       -1.0659835776
HH         10.8457358265        5.1885730079       -1.8692415353
CE2         8.5114353727        4.5929280550       -1.4438336301
HE2         8.6214663320        5.2120734901       -2.3236582748
CD2         7.2348386512        4.1445494055       -1.0507985418
HD2         6.3641412918        4.4267347702       -1.6306053417
C           5.0663530819        5.1788939875        1.3997991048
O           4.0576066261        5.6686100976        0.8818657890
N           6.1497507969        5.9079291430        1.6842974728
H           6.9505272967        5.4342440118        2.0797375261
CA          6.3310251098        7.3237724902        1.3428237039
HA          5.7893167890        7.5364837146        0.4195809267
CB          5.7478048011        8.2040074792        2.4629381712
HB2         4.6993231533        7.9406267972        2.6105883930
HB3         6.2733902677        7.9877356543        3.3946529892
CG          5.8255835239        9.6937406350        2.1775745971
CD1         6.7900742840       10.4938897691        2.8238793963
HD1         7.4607351199       10.0552111234        3.5528949462
CE1         6.8939025613       11.8645516368        2.5137989147
HE1         7.6340476727       12.4819338385        3.0034591729
CZ          6.0319643180       12.4392008345        1.5553042060
OH          6.1337239061       13.7604309722        1.2513883852
HH          5.4861579280       14.0045135349        0.5768888889
CE2         5.0621200878       11.6385331460        0.9132298945
HE2         4.3992155214       12.0769964757        0.1797596008
CD2         4.9610780337       10.2685927465        1.2251954128
HD2         4.2195758503        9.6554257887        0.7267403960
C           7.8163816017        7.6536962667        1.1027381670
O           8.7038060664        7.0206592866        1.6828434034
N           8.0889472196        8.6664575040        0.2756728576
H           7.3146919464        9.1608264087       -0.1473169320
CA          9.4308064899        9.1935145164        0.0102928637
HA2         9.9806020272        8.4998715819       -0.6260489038
HA3         9.9713634739        9.2921407338        0.9526382056
C           9.3986771242       10.5632092977       -0.6775015784
O           8.4146372371       10.9203109597       -1.3319837288
N          10.4729406533       11.3384753839       -0.5217970813
H          11.2455389388       10.9813455086        0.0248899913
CA         10.6135046187       12.6980206578       -1.0562959779
HA2         9.7473776791       13.2930079448       -0.7637733770
HA3        10.6492478546       12.6620489102       -2.1454695218
C          11.8780671636       13.4041602277       -0.5529675783
O          12.7425507346       12.7798009002        0.0705718430
N          11.9838080848       14.7097521568       -0.8110946494
H          11.2321731431       15.1573219263       -1.3173621940
CA         13.0879551643       15.5680942585       -0.3613390116
HA         13.5587419070       15.1128182951        0.5117495015
CB         14.1458596405       15.6691056922       -1.4722830921
HB2        14.4965612071       14.6652062498       -1.7172058488
HB3        13.6804667434       16.0802838314       -2.3697838005
CG         15.3480195598       16.5195777529       -1.1021819411
CD1        15.4445449474       17.8486434489       -1.5621503000
HD1        14.6711070041       18.2613857037       -2.1987101634
CE1        16.5431068814       18.6473735582       -1.1884382925
HE1        16.6217465921       19.6680991562       -1.5364290830
CZ         17.5499191528       18.1185074747       -0.3527185305
OH         18.6100784684       18.8918563773        0.0028014091
HH         19.2229541869       18.4097547813        0.5727840871
CE2        17.4546851492       16.7857413294        0.1047996240
HE2        18.2260720717       16.3779697141        0.7437906581
CD2        16.3537743773       15.9897933398       -0.2696098282
HD2        16.2808278795       14.9686840592        0.0856204257
C          12.5850814472       16.9608017002        0.0565341617
O          11.6784735826       17.5141193604       -0.5732938849
N          13.1921816240       17.5283539241        1.1037890761
H          13.9661774106       17.0350811019        1.5259531945
CA         12.8671709205       18.8416562513        1.6752969546
HA         12.3658244991       19.4511685566        0.9216219985
CB         11.9155380507       18.6711436836        2.8737375585
HB2        12.3916468003       18.0289270975        3.6168433039
HB3        11.7686176410       19.6458521542        3.3419393491
CG         10.5477017296       18.1045837103        2.5301218278
CD1         9.5274809414       18.9650783808        2.0779938150
HD1         9.7178036639       20.0268121809        1.9786092137
CE1         8.2591048830       18.4471074326        1.7512693194
HE1         7.4732084907       19.1027740922        1.4023169911
CZ          8.0075242549       17.0638735080        1.8716261482
OH          6.7823156898       16.5735942457        1.5475291540
HH          6.7413422042       15.6096090765        1.6456629995
CE2         9.0275452812       16.2004259476        2.3279804457
HE2         8.8342533137       15.1407393669        2.4228837238
CD2        10.2939087364       16.7231186782        2.6602721637
HD2        11.0752425375       16.0602249329        3.0112411293
C          14.1425863794       19.5857065851        2.1095062579
O          15.1171758988       18.9631115454        2.5436557030
N          14.1298386251       20.9216225528        2.0225164803
H          13.2910172445       21.3607539784        1.6675458215
CH3        15.2459571427       21.7913460244        2.3954790814
HH31       16.1315325528       21.5373363372        1.8091467677
HH32       14.9868467366       22.8351615997        2.2083648227
HH33       15.4782929383       21.6701784549        3.4554938962
         110
Energy of minimum      3=    -153.2478295     first found at step        0 after                29442 function calls
HH31        1.8404521073        1.3724656161        3.4716047521
CH3         1.9418776260        2.1494228371        2.7152843035
HH32        1.3627893421        3.0234135180        3.0096508549
HH33        1.5776507770        1.7775623959        1.7587663759
C           3.3958200660        2.5363033044        2.5793475970
O           4.2478780713        1.9869998459        3.2757948967
N           3.6774415969        3.4810761317        1.6843043201
H           2.9074946922        3.8853463341        1.1699128043
CA          5.0184506150        4.0111894916        1.4040639500
HA          5.6360420650        3.9091852501        2.2980444229
CB          5.6618390249        3.1869566834        0.2750993876
HB2         5.7083589373        2.1417811248        0.5851658536
HB3         5.0212846455        3.2359137599       -0.6072618642
CG          7.0626569346        3.6335345693       -0.1053579447
CD1         8.1553630082        3.2965945254        0.7176665632
HD1         7.9998931617        2.7000904116        1.6087540173
CE1         9.4521526797        3.7345954007        0.3836882057
HE1        10.2951093834        3.4780853155        1.0105217038
CZ          9.6597206521        4.5137135357       -0.7748862126
OH         10.9138477068        4.9284653119       -1.0967508692
HH         10.9175569654        5.4409156240       -1.9152421615
CE2         8.5644133835        4.8510218487       -1.5998798268
HE2         8.7209797575        5.4461343059       -2.4891872609
CD2         7.2689954174        4.4103024927       -1.2639037596
HD2         6.4304679703        4.6742651520       -1.8972389525
C           4.9697399965        5.5056301666        1.0366115969
O           3.9894485137        5.9777671934        0.4520057221
N           6.0351345747        6.2455908236        1.3584494235
H           6.8143836153        5.7854650334        1.8090606641
CA          6.2319722362        7.6521528478        0.9883988363
HA          5.7403718176        7.8377181375        0.0318602081
CB          5.5876429965        8.5608425626        2.0508892069
HB2         4.5330391536        8.2986736762        2.1486602168
HB3         6.0622634276        8.3715269337        3.0152546755
CG          5.6790086319       10.0424108658        1.7293621594
CD1         6.6068239020       10.8622807267        2.4040341371
HD1         7.2373634077       10.4455457484        3.1802034947
CE1         6.7269934149       12.2237716487        2.0612180483
HE1         7.4395023458       12.8560539883        2.5723766982
CZ          5.9181002620       12.7694644404        1.0415243774
OH          6.0361347251       14.0816126934        0.7058651727
HH          5.4253734235       14.3054713532       -0.0087883386
CE2         4.9843706445       11.9493067483        0.3711433855
HE2         4.3620323775       12.3656466877       -0.4092571284
CD2         4.8669713842       10.5885657622        0.7158790424
HD2         4.1538250401        9.9601622557        0.1955051658
C           7.7274772745        7.9805000855        0.8194321802
O           8.5838766911        7.3649580508        1.4616637165
N           8.0418303114        8.9733221500       -0.0169612724
H           7.2901554593        9.4546502296       -0.4924739577
CA          9.3944990103        9.4995962464       -0.2220882394
HA2         9.9783642980        8.7957279938       -0.8153909533
HA3         9.8849466964        9.6181485367        0.7450499565
C           9.3949275977       10.8557387101       -0.9369987629
O           8.4467187657       11.1956777975       -1.6507951122
N          10.4564608803       11.6386781764       -0.7383999341
H          11.1995408555       11.2955410161       -0.1439125965
CA         10.6215730281       12.9880901744       -1.2912492635
HA2         9.7433447315       13.5880819479       -1.0494630713
HA3        10.7065987790       12.9316623683       -2.3768286878
C          11.8624116687       13.7040546273       -0.7445517456
O          12.6912917928       13.0946902260       -0.0607317176
N          11.9879164361       15.0012493553       -1.0343443142
H          11.2651253668       15.4371058987       -1.5903772956
CA         13.0747232329       15.8668918022       -0.5570463429
HA         13.4991476250       15.4356867249        0.3513100417
CB         14.1855269240       15.9273556655       -1.6178836068
HB2        14.5286466370       14.9126625755       -1.8264480013
HB3        13.7707045363       16.3279976298       -2.5444720073
CG         15.3857036718       16.7622110153       -1.2083857558
CD1        15.5312367609       18.0792740905       -1.6897646029
HD1        14.7941999648       18.4944833762       -2.3667515657
CE1        16.6319356665       18.8622154532       -1.2887503878
HE1        16.7422006381       19.8723893060       -1.6587727979
CZ         17.5922588121       18.3269432781       -0.4024864186
OH         18.6603136936       19.0740020420       -0.0156202791
HH         18.6421301858       19.9514161794       -0.4188818961
CE2        17.4462378101       17.0075831008        0.0774574244
HE2        18.1856559934       16.6026297059        0.7546718049
CD2        16.3438730661       16.2277345174       -0.3244896202
HD2        16.2342909065       15.2159100466        0.0473256660
C          12.5606415311       17.2740655229       -0.2070242906
O          11.6950365673       17.8147826909       -0.9021137830
N          13.1097475842       17.8666757411        0.8582089968
H          13.8565007303       17.3827031830        1.3364765316
CA         12.7470600843       19.1892351577        1.3846593159
HA         12.2877145403       19.7817729916        0.5917054032
CB         11.7279143422       19.0355673525        2.5287781539
HB2        12.1621436570       18.4083339770        3.3093933169
HB3        11.5507984280       20.0174952051        2.9707007918
CG         10.3838276248       18.4580485329        2.1165995565
CD1         9.3922801480       19.3057267347        1.5837168924
HD1         9.5878087309       20.3651463416        1.4707514360
CE1         8.1459348917       18.7779542885        1.1940994705
HE1         7.3821058923       19.4237971020        0.7833061101
CZ          7.8878521319       17.3976409446        1.3325629882
OH          6.6839528946       16.8981019961        0.9483513654
HH          6.6358539639       15.9370278036        1.0693910605
CE2         8.8790413740       16.5470059345        1.8694755407
HE2         8.6805645086       15.4896230087        1.9782645291
CD2        10.1232423793       17.0795823409        2.2640812078
HD2        10.8823017329       16.4265870657        2.6770243615
C          13.9901703676       19.9503597630        1.8789462903
O          14.9505631781       19.3417947123        2.3618074796
N          13.9639788561       21.2858861273        1.7883409256
H          13.1380238618       21.7128468692        1.3908683931
CH3        15.0457628244       22.1720267437        2.2193253921
HH31       15.9642908191       21.9331126639        1.6793831295
HH32       14.7803647052       23.2120751047        2.0203541194
HH33       15.2248996498       22.0524829519        3.2898154187
         110
Energy of minimum      4=    -153.0758728     first found at step        0 after                53562 function calls
HH31        3.2937673643        0.1874440872        1.9383042193
CH3         4.1733296041       -0.3679293729        1.6161444828
HH32        4.1041024795       -0.5706148124        0.5484389099
HH33        4.2323549522       -1.3077866133        2.1630952881
C           5.4108072214        0.4545395014        1.8887252598
O           6.2859437885        0.0225254618        2.6372493646
N           5.4822752605        1.6380416967        1.2827424015
H           4.7060424494        1.9138895103        0.6977492506
CA          6.5876945946        2.5955971581        1.4199899128
HA          7.0630271251        2.4547620432        2.3922342893
CB          7.6343858239        2.3205161923        0.3256974876
HB2         8.0059787159        1.3012293604        0.4423775205
HB3         7.1487177234        2.3797916621       -0.6499540905
CG          8.8220741782        3.2673293860        0.3434607304
CD1         9.8310535061        3.1120888785        1.3144436370
HD1         9.7738099769        2.3021287509        2.0318669903
CE1        10.9158775679        4.0102996683        1.3549619594
HE1        11.6940432492        3.8958257713        2.0970079041
CZ         10.9942663985        5.0684107647        0.4239964842
OH         12.0466737023        5.9282613073        0.4620625946
HH         11.9885863945        6.5899476087       -0.2386827158
CE2         9.9831703064        5.2235951362       -0.5493616454
HE2        10.0414796108        6.0322522948       -1.2650389283
CD2         8.8999030918        4.3234915604       -0.5875656130
HD2         8.1234544995        4.4487366669       -1.3327977897
C           6.0887958727        4.0504559594        1.3497002317
O           5.1091315198        4.3475194593        0.6586560476
N           6.7783621691        4.9611172411        2.0433276626
H           7.5835011963        4.6473601935        2.5679092211
CA          6.5573711034        6.4107386899        1.9925071021
HA          6.1857499417        6.6777990721        1.0016943340
CB          5.4961119594        6.8077491945        3.0324405073
HB2         4.5836630375        6.2411713773        2.8401675883
HB3         5.8501702280        6.5277099676        4.0261047021
CG          5.1467670333        8.2852803508        3.0245356875
CD1         5.6722218207        9.1446798247        4.0108016825
HD1         6.3132102489        8.7496263669        4.7899162770
CE1         5.3722082827       10.5211215767        3.9832254437
HE1         5.7773755090       11.1794850929        4.7395687720
CZ          4.5427775374       11.0419230720        2.9659429193
OH          4.2493316219       12.3689436358        2.9324861021
HH          4.6704041753       12.8421131925        3.6617857654
CE2         4.0157156019       10.1801199668        1.9802616055
HE2         3.3807113410       10.5844854179        1.2039357124
CD2         4.3182643476        8.8044902884        2.0100819664
HD2         3.9134996024        8.1462405163        1.2504933977
C           7.8731308859        7.1754972218        2.2268278954
O           8.7304752751        6.7289130691        2.9952241490
N           8.0286133398        8.3364157684        1.5854047581
H           7.2819985886        8.6593340858        0.9846608737
CA          9.1980666699        9.2117999979        1.7159901763
HA2         9.3022048770        9.5203759670        2.7567960954
HA3        10.0973948588        8.6636970161        1.4333170139
C           9.1060369629       10.4709877159        0.8457449887
O           8.1712795789       10.6296699033        0.0541881378
N          10.0792647864       11.3725181021        0.9887129320
H          10.8168875301       11.1818810907        1.6542488996
CA         10.1622458803       12.6369079746        0.2476776534
HA2         9.2676517719       13.2298831221        0.4410864757
HA3        10.2050009674       12.4281512355       -0.8218586022
C          11.3882671619       13.4778838652        0.6235804475
O          12.1917337590       13.0813451831        1.4737834389
N          11.5328809418       14.6433512926       -0.0113528693
H          10.8255672144       14.9082515147       -0.6833349253
CA         12.6262869191       15.5995151442        0.2107824489
HA         12.9909273356       15.4942225577        1.2341263730
CB         13.7837223233       15.2759712977       -0.7509479922
HB2        14.1201058270       14.2544729540       -0.5663500211
HB3        13.4127095760       15.3160024358       -1.7766312057
CG         14.9797901072       16.2029076488       -0.6215918293
CD1        15.8731208289       16.0511680848        0.4573801887
HD1        15.7234765894       15.2547871641        1.1768137379
CE1        16.9603058520       16.9353784782        0.6057157653
HE1        17.6452434009       16.8180640538        1.4343861179
CZ         17.1541057850       17.9784453470       -0.3265712378
OH         18.2012797775       18.8346802858       -0.1905600117
HH         18.7338164150       18.6201877470        0.5860575174
CE2        16.2605927681       18.1275237292       -1.4087070601
HE2        16.4148143725       18.9270214220       -2.1201020349
CD2        15.1762167734       17.2404806101       -1.5557676316
HD2        14.4892868989       17.3637914141       -2.3843995617
C          12.1516191307       17.0536612469        0.0317738179
O          11.2382132338       17.3244844499       -0.7542400523
N          12.7867886585       17.9911798013        0.7414784981
H          13.5428078956       17.6978359198        1.3450171477
CA         12.5825627173       19.4384091405        0.6086193095
HA         12.2879826460       19.6610359964       -0.4183470802
CB         11.4485983156       19.8852237904        1.5463899781
HB2        10.5566322284       19.2964028072        1.3265631956
HB3        11.7344504012       19.6694872775        2.5773466178
CG         11.0843142713       21.3540256686        1.4242527210
CD1        11.5102293749       22.2758514865        2.4018010870
HD1        12.0913720859       21.9380946354        3.2514904699
CE1        11.1855692607       23.6408555824        2.2742176088
HE1        11.5105792351       24.3529420978        3.0203338058
CZ         10.4331987743       24.0887486738        1.1673018913
OH         10.1228812942       25.4070069555        1.0480615638
HH          9.6069206858       25.5773340822        0.2493310181
CE2        10.0062548203       23.1647095384        0.1884418855
HE2         9.4287523589       23.5053372263       -0.6602418528
CD2        10.3324873729       21.8001383781        0.3190259346
HD2        10.0028641013       21.0924988818       -0.4325798749
C          13.8850460727       20.2056342699        0.9046728239
O          14.6727817013       19.7928154756        1.7621862636
N          14.1076657030       21.3284310292        0.2100883441
H          13.4020159931       21.6161346691       -0.4540114372
CH3        15.2903935211       22.1770654511        0.3548863941
HH31       15.3449045802       22.5730147465        1.3708863234
HH32       16.1938746315       21.5981665714        0.1520679191
HH33       15.2408781178       23.0117008184       -0.3467955535
         110
Energy of minimum      5=    -152.9751113     first found at step        0 after                  645 function calls
HH31        5.4400678037        1.7107786506        3.7398487712
CH3         6.3740131872        1.2084499570        3.4923252100
HH32        6.5263572321        0.3674564258        4.1672267996
HH33        6.3322340730        0.8492941620        2.4651298280
C           7.5185868322        2.1842023533        3.6336221026
O           8.4292030152        1.9557963099        4.4282260951
N           7.4712898376        3.2700149736        2.8643527950
H           6.6741730101        3.3782275340        2.2530095773
CA          8.4713563097        4.3458702525        2.8536424982
HA          8.9529856743        4.3949581375        3.8317315663
CB          9.5471515823        4.0263286094        1.8004489181