         110
Energy of minimum      1=    -158.3999651     first found at step      114 after                90435 function calls
HH31       10.9043638580        9.9492832627        7.5162327005
CH3        10.1804467019        9.1778638724        7.7745279146
HH32       10.5906875600        8.5388291940        8.5551089506
HH33        9.2630144139        9.6447945392        8.1297143615
C           9.8761957994        8.3480168300        6.5493897127
O          10.1028050346        7.1391100693        6.5515433495
N           9.3645840260        8.9967173214        5.5051412752
H           9.2256135081        9.9933987437        5.5938587479
CA          9.0066637500        8.3834889267        4.2194375471
HA          9.6265061894        7.4997491616        4.0585500421
CB          7.5329237362        7.9396894707        4.2613060875
HB2         7.4153401103        7.1794647506        5.0351422511
HB3         6.9153267281        8.7931358665        4.5469541233
CG          7.0135696984        7.3786247072        2.9483126391
CD1         6.2453656218        8.1899608906        2.0880009707
HD1         5.9962543295        9.2042174374        2.3758633984
CE1         5.8094874037        7.6889065569        0.8458274972
HE1         5.2229039065        8.3073675197        0.1807973370
CZ          6.1390671796        6.3721146540        0.4602612218
OH          5.7162030950        5.8930182280       -0.7395909064
HH          6.0024600162        4.9808556778       -0.8758315487
CE2         6.9023747568        5.5571603485        1.3251118780
HE2         7.1545907522        4.5472350473        1.0319311990
CD2         7.3396440300        6.0623205016        2.5660017819
HD2         7.9315942630        5.4377034146        3.2244429560
C           9.2498005259        9.3462599485        3.0438342540
O           9.0665526468       10.5619385925        3.1750200529
N           9.6139950585        8.8008079855        1.8787570802
H           9.7273248631        7.7974818421        1.8345918998
CA          9.6800830465        9.5313521278        0.6099945822
HA          9.0524567590       10.4179725132        0.6934648765
CB         11.1182178195       10.0041319764        0.3387187099
HB2        11.5742688417       10.3104761823        1.2818418181
HB3        11.7098210398        9.1743040832       -0.0512768850
CG         11.1928130380       11.1799876694       -0.6189976485
CD1        11.2176160368       10.9751006281       -2.0133069690
HD1        11.2159158235        9.9695429974       -2.4159563916
CE1        11.2374626064       12.0804171593       -2.8877785070
HE1        11.2492096340       11.9310792058       -3.9587706474
CZ         11.2372005463       13.3928131438       -2.3682729229
OH         11.2492971746       14.4571750504       -3.2103474151
HH         11.2179778562       15.2996304466       -2.7232119965
CE2        11.2196659532       13.5974677520       -0.9736672434
HE2        11.2109044678       14.6011520571       -0.5727499110
CD2        11.2034438904       12.4908616466       -0.1043864495
HD2        11.1883905776       12.6503396644        0.9656263921
C           9.1303316700        8.6830070703       -0.5486800656
O           9.4188266180        7.4873389843       -0.6495192333
N           8.3575237328        9.3111586173       -1.4355158423
H           8.1724310393       10.2949728408       -1.2957502180
CA          7.7529572591        8.7010590876       -2.6230155770
HA2         8.5148164853        8.1534083408       -3.1792270299
HA3         6.9695953483        8.0026897360       -2.3277628320
C           7.1423909125        9.7690623082       -3.5344645934
O           6.7436375334       10.8375699690       -3.0593412047
N           7.1082324998        9.5187886478       -4.8465342704
H           7.4455539172        8.6250367919       -5.1751379445
CA          6.7966381754       10.5497762537       -5.8447785647
HA2         6.7940481166       10.1115232611       -6.8428558148
HA3         5.8057873425       10.9619143676       -5.6492942964
C           7.8378433219       11.6755939750       -5.8095948792
O           9.0363041729       11.4178850704       -5.9534047662
N           7.3952744845       12.9130851416       -5.5748160707
H           6.3996404105       13.0511624208       -5.4699476963
CA          8.2667899750       14.0497595495       -5.2591805625
HA          9.1855000187       13.6743960948       -4.8065176285
CB          8.6472447928       14.7948528113       -6.5489855057
HB2         9.1757583343       14.1082306146       -7.2119431758
HB3         7.7361959382       15.1095880967       -7.0607799997
CG          9.5251157437       16.0108811758       -6.3095721930
CD1         8.9496436886       17.2954427030       -6.2311420214
HD1         7.8835070628       17.4230200760       -6.3759894198
CE1         9.7566558666       18.4151086161       -5.9492679210
HE1         9.3205620681       19.4024023352       -5.8839458671
CZ         11.1440487783       18.2537764986       -5.7475975146
OH         11.9188913712       19.3366982375       -5.4743411803
HH         12.8461575249       19.0894342180       -5.3661547811
CE2        11.7210959393       16.9679795104       -5.8331118254
HE2        12.7835899068       16.8409775542       -5.6771569156
CD2        10.9105110007       15.8501699306       -6.1132009134
HD2        11.3529267978       14.8625547070       -6.1616669041
C           7.6104942260       15.0105462091       -4.2544392044
O           6.4313928972       15.3507683025       -4.3855530957
N           8.3993796798       15.4918776214       -3.2915802085
H           9.3475698475       15.1416947295       -3.2552449524
CA          8.1190303134       16.6841192772       -2.4834799761
HA          7.5534803887       17.3815253991       -3.1042684178
CB          7.2392527769       16.3407919704       -1.2648161689
HB2         6.9035086589       17.2782833460       -0.8190341041
HB3         6.3396753177       15.8344821959       -1.6175777930
CG          7.8695313332       15.5038854752       -0.1606736599
CD1         7.5923830132       14.1242202137       -0.0669079276
HD1         6.9702762529       13.6465885109       -0.8138759278
CE1         8.0984137983       13.3695859762        1.0120388998
HE1         7.8661917246       12.3189002448        1.0953258162
CZ          8.8990890676       13.9913354252        1.9952284923
OH          9.4017741875       13.2793867261        3.0394537403
HH          9.1699279840       12.3337249011        3.0007777460
CE2         9.1823513717       15.3695260816        1.8965046413
HE2         9.7904714189       15.8428566320        2.6549428297
CD2         8.6614366827       16.1239712440        0.8276281531
HD2         8.8606641978       17.1870201144        0.7778941669
C           9.4222441353       17.4018612881       -2.0798850268
O          10.4991998854       16.7934698277       -2.0596245192
N           9.3277816423       18.6971141935       -1.7561196759
H           8.4138539159       19.1278693065       -1.7964146224
CH3        10.4568601315       19.5394028436       -1.3607072613
HH31       10.1073811937       20.5440152264       -1.1152892730
HH32       10.9542578711       19.1154703253       -0.4859960977
HH33       11.1773744133       19.6067961839       -2.1784769703
         110
Energy of minimum      2=    -158.3283153     first found at step      120 after                93926 function calls
HH31        8.3051098735       10.5639526105        7.9852852056
CH3         7.6224053188        9.7241286737        8.1055793746
HH32        7.8012410275        9.2428799349        9.0659892118
HH33        6.5948558952       10.0820972594        8.0624021561
C           7.8519156980        8.7302344575        6.9912736086
O           8.1901064675        7.5770963918        7.2534024804
N           7.6691263464        9.1771023934        5.7503423595
H           7.4034699874       10.1448439029        5.6343040344
CA          7.8467444610        8.3813453233        4.5287024136
HA          8.5736301746        7.5897411538        4.7186652644
CB          6.5058470063        7.7262290610        4.1499824752
HB2         6.2082653657        7.0447362839        4.9484823751
HB3         5.7408565283        8.5018397611        4.0820862735
CG          6.5367942304        6.9548752402        2.8413458798
CD1         6.0336377962        7.5430271025        1.6625963061
HD1         5.5944061444        8.5328518376        1.6936065873
CE1         6.1113685648        6.8509020346        0.4382776233
HE1         5.7300846175        7.2980863163       -0.4691839053
CZ          6.6914716933        5.5654924573        0.3890207031
OH          6.7643284021        4.9014772658       -0.7949426340
HH          7.1748259026        4.0339429644       -0.6880721638
CE2         7.1888801587        4.9735329362        1.5709381997
HE2         7.6323936424        3.9878633568        1.5353345489
CD2         7.1124425048        5.6697606819        2.7938965345
HD2         7.5016498010        5.2166285648        3.6979343998
C           8.3795526787        9.2371350050        3.3660332279
O           8.0338744034       10.4175982438        3.2407790460
N           9.1818531246        8.6309376742        2.4849009779
H           9.4095235456        7.6577882405        2.6352199471
CA          9.6067362606        9.2219922147        1.2129401276
HA          8.8999964502       10.0079316735        0.9488486707
CB         10.9917284960        9.8738949289        1.3614114265
HB2        11.0577985502       10.3456529375        2.3434450153
HB3        11.7653173702        9.1054340436        1.3197814570
CG         11.2698469719       10.9369859248        0.3135931532
CD1        11.7980830191       10.5885867090       -0.9458954811
HD1        12.0418169527        9.5567195951       -1.1675212337
CE1        12.0036390189       11.5830198057       -1.9234963664
HE1        12.4016762802       11.3221603459       -2.8945701331
CZ         11.6854300664       12.9287570489       -1.6406433314
OH         11.8772238926       13.8854791185       -2.5841279055
HH         11.5920671258       14.7612972585       -2.2683406886
CE2        11.1639022190       13.2780193854       -0.3784038761
HE2        10.9112525197       14.3062699283       -0.1614968826
CD2        10.9633179694       12.2822853623        0.5956501859
HD2        10.5610436402       12.5525040742        1.5630276682
C           9.5843476982        8.1810648481        0.0814641361
O          10.0137275247        7.0386009951        0.2642459552
N           9.1048424420        8.5871077668       -1.0947151267
H           8.7808608711        9.5412017381       -1.1748199505
CA          9.0160468666        7.7696110673       -2.3077580693
HA2         9.9763123203        7.2865077636       -2.4927505909
HA3         8.2568374345        6.9970271748       -2.1841997204
C           8.6498999683        8.6303490426       -3.5198509698
O           8.0019576623        9.6715806869       -3.3698717324
N           9.0977310839        8.2389632031       -4.7162846973
H           9.6195575299        7.3760391765       -4.7764110947
CA          9.0439130017        9.0988381065       -5.9054326895
HA2         9.4311069724        8.5605960472       -6.7706527738
HA3         8.0092271652        9.3769085739       -6.1102785478
C           9.8858568963       10.3648543750       -5.7023810118
O          11.0795991419       10.2753062100       -5.4017737014
N           9.2641681387       11.5403640760       -5.8209049831
H           8.2853059736       11.5385007366       -6.0722142130
CA          9.8519744468       12.8236889998       -5.4223673553
HA         10.5924593300       12.6451926186       -4.6415652372
CB         10.5736521823       13.4641364567       -6.6190807694
HB2        11.3730078818       12.7984731620       -6.9480062261
HB3         9.8695018166       13.5654436680       -7.4466803123
CG         11.1722936201       14.8253102629       -6.3101910179
CD1        10.4825219553       16.0007699201       -6.6709680541
HD1         9.5379257076       15.9354759564       -7.1978056588
CE1        11.0118938567       17.2633347588       -6.3380845259
HE1        10.4807978074       18.1639835569       -6.6144699327
CZ         12.2367157005       17.3525754722       -5.6411995216
OH         12.7538766139       18.5671056820       -5.3165948924
HH         12.1896786861       19.2864879823       -5.6276013811
CE2        12.9277854615       16.1753469780       -5.2834508083
HE2        13.8640787954       16.2492080844       -4.7478328484
CD2        12.3957014731       14.9147900639       -5.6183910768
HD2        12.9225511766       14.0133429523       -5.3300599002
C           8.7949162657       13.7833607696       -4.8522709598
O           7.7076726127       13.9311278273       -5.4173307263
N           9.1462637209       14.4762928213       -3.7670571500
H          10.0522222922       14.2746853451       -3.3650416603
CA          8.4792645390       15.6904272632       -3.2830953050
HA          8.0975742057       16.2295624448       -4.1521472251
CB          7.2697674632       15.3469145722       -2.3905989428
HB2         6.7010607204       16.2639853731       -2.2296882326
HB3         6.6104228368       14.6751626268       -2.9419863039
CG          7.5582662703       14.7371696402       -1.0260412372
CD1         7.4176628328       13.3487157055       -0.8222569753
HD1         7.1536675719       12.7052481777       -1.6525409363
CE1         7.5912031468       12.7983358173        0.4649042491
HE1         7.4602188345       11.7389730487        0.6240521811
CZ          7.9229520264       13.6356087410        1.5527123991
OH          8.1009691920       13.1234372629        2.8001279374
HH          8.0008060968       12.1547210230        2.8313770112
CE2         8.0709620449       15.0230192429        1.3465586922
HE2         8.3184792259       15.6613182062        2.1834536687
CD2         7.8797732064       15.5719805851        0.0639714720
HD2         7.9666796831       16.6419639745       -0.0767105133
C           9.4768992422       16.6298321352       -2.5769176722
O          10.5361248263       16.1925821504       -2.1110167536
N           9.1406868712       17.9226853936       -2.4937326254
H           8.2589838567       18.2077282209       -2.8985135385
CH3         9.9627093907       18.9560108627       -1.8633982685
HH31        9.4655914976       19.9253416385       -1.9334850584
HH32       10.1234518824       18.7173436777       -0.8101166238
HH33       10.9319807416       19.0198226582       -2.3622717042
         110
Energy of minimum      3=    -158.0665907     first found at step      122 after                95154 function calls
HH31       11.9938821117        8.5314709529        7.3239310105
CH3        11.1723447394        7.8649392268        7.5821243630
HH32       11.5453109225        7.0464859071        8.1961302771
HH33       10.4144595093        8.4191509599        8.1337819233
C          10.5624017635        7.3103501244        6.3162064137
O          10.5496241602        6.0965031650        6.1181885483
N          10.0589075823        8.1983988674        5.4613072917
H          10.1287024035        9.1765731882        5.7044590283
CA          9.4326619375        7.8737023117        4.1730023818
HA          9.8520744179        6.9393423852        3.7958865982
CB          7.9188491497        7.6770060601        4.3785225501
HB2         7.7614339156        6.8422800467        5.0634093943
HB3         7.5078061547        8.5695806980        4.8536022179
CG          7.1457381052        7.4052250066        3.0986124904
CD1         6.4777532612        8.4575818925        2.4386320134
HD1         6.4881041087        9.4562697619        2.8584135808
CE1         5.8116767693        8.2189880268        1.2206827341
HE1         5.3030893504        9.0233179392        0.7076890790
CZ          5.8073885001        6.9241531972        0.6599159365
OH          5.1639234746        6.6984430093       -0.5160670020
HH          5.2291387768        5.7723279773       -0.7817033940
CE2         6.4691736232        5.8684776028        1.3249313942
HE2         6.4664576890        4.8753262222        0.8969700091
CD2         7.1389992228        6.1114472244        2.5408614999
HD2         7.6544750357        5.3019390796        3.0439351242
C           9.6960370705        8.9652751726        3.1202219572
O           9.7955346972       10.1502779588        3.4535456272
N           9.7600881355        8.5670663753        1.8457823453
H           9.6715560038        7.5781508988        1.6553697954
CA          9.6747741138        9.4560455319        0.6823598274
HA          9.0384575922       10.3023679696        0.9407697830
CB         11.0686722760        9.9920399519        0.3181905917
HB2        11.5888130459       10.2802588168        1.2329773220
HB3        11.6521642657        9.1964502177       -0.1480644236
CG         11.0358853145       11.2052681489       -0.5935031048
CD1        11.2067169799       11.0647627384       -1.9854354782
HD1        11.3697558378       10.0850132508       -2.4178167998
CE1        11.1684372509       12.2010762319       -2.8182418138
HE1        11.2996469997       12.1014199831       -3.8869236801
CZ         10.9673277321       13.4810255252       -2.2586582932
OH         10.9595922229       14.5785828193       -3.0574962981
HH         10.8377222000       15.3935507342       -2.5379397515
CE2        10.7876814488       13.6203009805       -0.8669226023
HE2        10.6219200004       14.5986464444       -0.4382115631
CD2        10.8217877105       12.4822140249       -0.0388142598
HD2        10.6823271848       12.5893910579        1.0295558428
C           9.0294829726        8.7244818540       -0.5084299835
O           9.1680471131        7.5046786790       -0.6420873197
N           8.3447232173        9.4595683365       -1.3869594862
H           8.2936889861       10.4589124022       -1.2430030600
CA          7.6828562920        8.9213835746       -2.5811560494
HA2         8.3888279631        8.3005117838       -3.1342100331
HA3         6.8385507108        8.2979787319       -2.2862138825
C           7.1699007079       10.0255416640       -3.5095225643
O           6.8728163620       11.1341230661       -3.0561145328
N           7.0905047331        9.7447927626       -4.8141277919
H           7.3445395133        8.8165309771       -5.1210988630
CA          6.8098475455       10.7578646412       -5.8407273395
HA2         6.7756952003       10.2900310893       -6.8247039744
HA3         5.8373324290       11.2115489993       -5.6452367509
C           7.8867079685       11.8506891058       -5.8591557788
O           9.0832221519       11.5468679669       -5.8391703577
N           7.4717178340       13.1198084271       -5.8545002710
H           6.4778929014       13.2982968367       -5.8950405476
CA          8.3498143106       14.2608946863       -5.5760663829
HA          9.1942648574       13.9119781515       -4.9803017363
CB          8.9119093588       14.8375719373       -6.8832843497
HB2         9.4638985155       14.0560876352       -7.4075368399
HB3         8.0841351274       15.1446617104       -7.5246295232
CG          9.8397287664       16.0185103012       -6.6609450325
CD1         9.3763878897       17.3335104660       -6.8670666899
HD1         8.3644966333       17.5052768374       -7.2142644581
CE1        10.2240841704       18.4290435149       -6.6105532686
HE1         9.8736513811       19.4404017143       -6.7645300432
CZ         11.5387685519       18.2124051957       -6.1452830071
OH         12.3518450447       19.2728017203       -5.8954024348
HH         13.2205462912       18.9862258954       -5.5851840705
CE2        12.0025627547       16.8947519188       -5.9395319108
HE2        13.0082398769       16.7257843680       -5.5796332732
CD2        11.1520901930       15.8015212119       -6.1969614630
HD2        11.5056304282       14.7919996497       -6.0254439704
C           7.6268521863       15.3458325078       -4.7633226904
O           6.5199298297       15.7654969056       -5.1115577796
N           8.2743047165       15.8080858368       -3.6931892488
H           9.1708145775       15.3900933573       -3.4833872215
CA          7.8776277639       16.9517416779       -2.8635380333
HA          7.4760165893       17.7288576293       -3.5162997187
CB          6.7683084070       16.5433185401       -1.8756419167
HB2         6.4666576704       17.4255567271       -1.3091220382
HB3         5.8922493874       16.2354911023       -2.4480722143
CG          7.1109590284       15.4349772219       -0.8921084179
CD1         6.8068920435       14.0955527809       -1.2078605440
HD1         6.3684339758       13.8496671987       -2.1666614394
CE1         7.0510088121       13.0738058409       -0.2702489018
HE1         6.8001652994       12.0498093971       -0.5023823211
CZ          7.6062063364       13.3860966926        0.9877921616
OH          7.8136890303       12.3969535358        1.8962495181
HH          8.1839972311       12.7375014932        2.7194799490
CE2         7.9263597277       14.7254647512        1.3006675710
HE2         8.3498457687       14.9684109799        2.2655188163
CD2         7.6751493205       15.7467096655        0.3620261658
HD2         7.9018714327       16.7752520309        0.6144746259
C           9.0892340711       17.5535598463       -2.1246014922
O          10.1182136205       16.8894163168       -1.9511413577
N           8.9700265496       18.8106364114       -1.6810670624
H           8.0993371079       19.2924306328       -1.8612035089
CH3        10.0109891819       19.5393385122       -0.9555031134
HH31        9.6579892176       20.5395814264       -0.6974184870
HH32       10.2699413257       19.0089690328       -0.0368257981
HH33       10.9060262254       19.6302403105       -1.5743645952
         110
Energy of minimum      4=    -157.9251033     first found at step      124 after                96411 function calls
HH31       10.8713455426       10.3248319495        7.7271963152
CH3        10.2384533816        9.4921058738        8.0303045308
HH32       10.7113054183        8.9537654031        8.8504073846
HH33        9.2696101468        9.8706225459        8.3526848614
C          10.0448705799        8.5592619129        6.8579138711
O          10.4092304305        7.3870973357        6.9358032187
N           9.4730328028        9.0793597294        5.7736963528
H           9.2196733246       10.0569496739        5.7998325089
CA          9.2023823151        8.3518267149        4.5267404698
HA          9.9208842150        7.5367318240        4.4246502689
CB          7.7892288360        7.7460775496        4.5906747521
HB2         7.7425990282        7.0491788588        5.4290092085
HB3         7.0720811136        8.5441116046        4.7911657414
CG          7.3660451621        7.0104891713        3.3308173849
CD1         6.4960294277        7.6282087732        2.4088433204
HD1         6.1103807793        8.6210117171        2.6075509348
CE1         6.1274888728        6.9596808545        1.2246158347
HE1         5.4580879732        7.4341398410        0.5201795440
CZ          6.6310598234        5.6674012785        0.9592658012
OH          6.2720904154        5.0114239815       -0.1761824994
HH          5.6582202647        5.5333689053       -0.7079949255
CE2         7.5022712292        5.0502204144        1.8826090491
HE2         7.8832748666        4.0598843688        1.6744110880
CD2         7.8690727528        5.7214593963        3.0658782817
HD2         8.5384720210        5.2443928639        3.7717765237
C           9.3504065852        9.2639772991        3.2963186974
O           9.0391448251       10.4591532604        3.3561009943
N           9.7901171230        8.6974930643        2.1679085012
H          10.0012601618        7.7091463206        2.1772623136
CA          9.8572632980        9.3802615576        0.8724392547
HA          9.1543289905       10.2125064169        0.8881304157
CB         11.2641750086        9.9621009095        0.6514765501
HB2        11.6478031367       10.3335594807        1.6034297080
HB3        11.9393145093        9.1719169275        0.3189521157
CG         11.2937079838       11.1110391091       -0.3407593575
CD1        11.4259910769       10.8688043489       -1.7229698000
HD1        11.5368825392        9.8557514700       -2.0899889786
CE1        11.4088397187       11.9459896672       -2.6320051714
HE1        11.5034816135       11.7673862907       -3.6943615675
CZ         11.2642449953       13.2679913003       -2.1589444879
OH         11.2434623881       14.3050220969       -3.0344297740
HH         11.1119370990       15.1553636077       -2.5787448430
CE2        11.1379480568       13.5104508934       -0.7760412620
HE2        11.0183730273       14.5207882787       -0.4111665205
CD2        11.1588538606       12.4321660074        0.1280639678
HD2        11.0612263685       12.6206024106        1.1890261878
C           9.4428693514        8.4470309661       -0.2771571525
O           9.8080206697        7.2685118724       -0.2995814632
N           8.7007608337        8.9853094090       -1.2455423773
H           8.4454938438        9.9601552462       -1.1650162969
CA          8.2358922351        8.2917255720       -2.4500876147
HA2         9.0793984039        7.7969834136       -2.9333314558
HA3         7.4958868059        7.5361060759       -2.1857762576
C           7.6038866606        9.2762839258       -3.4381146881
O           7.0871534190       10.3213284506       -3.0291738098
N           7.6783848361        8.9830403279       -4.7395360921
H           8.1101998873        8.1116433825       -5.0129777545
CA          7.3433611089        9.9494680621       -5.7932369289
HA2         7.4449375185        9.4811993070       -6.7723397858
HA3         6.3092161752       10.2759731477       -5.6757754085
C           8.2759433305       11.1658959914       -5.7359783541
O           9.4993705854       11.0138896048       -5.7951423017
N           7.7106447165       12.3649699398       -5.5775353004
H           6.7019883490       12.4150273474       -5.5398039628
CA          8.4554392357       13.5875362888       -5.2586587312
HA          9.3739239340       13.3147854946       -4.7373929348
CB          8.8475458759       14.3160510317       -6.5542562102
HB2         9.4852641142       13.6610092690       -7.1496563449
HB3         7.9466771830       14.5155199612       -7.1370552105
CG          9.5824721195       15.6238090790       -6.3170859606
CD1         8.8852884843       16.8479929526       -6.3714235163
HD1         7.8292890166       16.8606385216       -6.6138883775
CE1         9.5549928575       18.0573938658       -6.0994594401
HE1         9.0183428335       18.9954532300       -6.1403481169
CZ         10.9283226226       18.0442600381       -5.7714431164
OH         11.5813544351       19.2070016719       -5.5078486225
HH         10.9934075178       19.9689261468       -5.5874413624
CE2        11.6258004741       16.8185540321       -5.7204584462
HE2        12.6767394095       16.8138686207       -5.4665020689
CD2        10.9530442052       15.6114277633       -5.9934850796
HD2        11.4889002255       14.6715761024       -5.9400621287
C           7.6546818080       14.5203407055       -4.3355666845
O           6.4629340053       14.7540126998       -4.5553964333
N           8.3335734874       15.0966150874       -3.3414866536
H           9.3027226257       14.8293595693       -3.2304511786
CA          7.8999403923       16.2818574041       -2.5929904494
HA          7.3224874306       16.9117368099       -3.2722587250
CB          6.9705764067       15.8974336643       -1.4242715447
HB2         6.5207824417       16.8136764825       -1.0388817322
HB3         6.1476607855       15.2983720722       -1.8166491140
CG          7.5950395097       15.1597333741       -0.2483300812
CD1         7.4442950988       13.7631727592       -0.1223746097
HD1         6.9257117007       13.2046035430       -0.8918996130
CE1         7.9417963011       13.0946671298        1.0157908363
HE1         7.8056584393       12.0293140772        1.1218122023
CZ          8.6082305751       13.8209493417        2.0271299384
OH          9.1019099891       13.1936439887        3.1284457212
HH          8.9664724039       12.2289896053        3.1094497581
CE2         8.7646589973       15.2166288762        1.8970745724
HE2         9.2695255074       15.7698675235        2.6768980583
CD2         8.2514254709       15.8838241942        0.7681828983
HD2         8.3516077382       16.9592318393        0.6927831147
C           9.1084536282       17.1174478831       -2.1263305164
O          10.2277790341       16.6027364678       -2.0144616891
N           8.8856411088       18.4080962214       -1.8506330582
H           7.9444986451       18.7594182853       -1.9660224662
CH3         9.9103063722       19.3502354176       -1.3998283732
HH31        9.4713544720       20.3384007056       -1.2498655895
HH32       10.3443920607       19.0103429022       -0.4573612245
HH33       10.7037422029       19.4263154374       -2.1462265538
         110
Energy of minimum      5=    -157.0194019     first found at step        0 after                70553 function calls
HH31        5.2238610348       12.0709458155        7.6701668120
CH3         5.0836815190       11.0053573621        7.8454138455
HH32        5.1227951199       10.8030783304        8.9147518672
HH33        4.1169712790       10.6964261759        7.4506832370
C           6.1785933991       10.2357246400        7.1446520279
O           6.9418104568        9.5210579258        7.7924753825
N           6.2533267660       10.3816146348        5.8235674638
H           5.5959980310       11.0078278181        5.3810223582
CA          7.2474466106        9.7400436600        4.9514640097
HA          8.1584367765        9.5663773557        5.5268097240
CB          6.7190360112        8.3720143541        4.4766555633