         110
Energy of minimum      1=    -153.4314634     first found at step        0 after                40748 function calls
HH31        2.6881705978        1.7406029021       -4.6728049785
CH3         2.7374148807        2.8283619947       -4.6547411301
HH32        1.8647120740        3.2248869306       -4.1380060520
HH33        2.7602617133        3.2097589592       -5.6744884985
C           3.9885642745        3.2661225386       -3.9300988907
O           4.7603401023        2.4264088752       -3.4696120996
N           4.1874143842        4.5788399678       -3.8290442687
H           3.4890747054        5.1916847190       -4.2260187533
CA          5.3285831766        5.2141107905       -3.1569933315
HA          5.6974436525        4.5494225132       -2.3739184293
CB          6.4607445331        5.4339305719       -4.1775402401
HB2         6.7747869331        4.4653353081       -4.5697096123
HB3         6.0720759693        6.0141894631       -5.0163157871
CG          7.6801787858        6.1434184382       -3.6133027562
CD1         7.8663383434        7.5220042073       -3.8443088027
HD1         7.1582232818        8.0718478237       -4.4525657408
CE1         8.9654662098        8.1926168809       -3.2729267864
HE1         9.1107944818        9.2503615326       -3.4431277070
CZ          9.8853117056        7.4851433987       -2.4700857907
OH         10.9440412655        8.1368550634       -1.9201281205
HH         11.4981531891        7.5371351546       -1.4045514644
CE2         9.7034285034        6.1026612963       -2.2456291309
HE2        10.4081548261        5.5583927094       -1.6318967203
CD2         8.6006863374        5.4352832071       -2.8155233518
HD2         8.4587235894        4.3763517124       -2.6348294151
C           4.9284144688        6.5435240376       -2.4911684085
O           4.0411502288        7.2511705185       -2.9784219027
N           5.6116281630        6.9004229902       -1.3995908411
H           6.3330206883        6.2744979013       -1.0685628333
CA          5.5443375080        8.2143213852       -0.7513333583
HA          5.2886459920        8.9657658795       -1.5003993335
CB          4.4453137681        8.2100441727        0.3232248980
HB2         3.4982527577        7.9310114947       -0.1413228011
HB3         4.6796373454        7.4488298463        1.0693838659
CG          4.2598774523        9.5483940147        1.0155136948
CD1         4.8070832643        9.7673793174        2.2960744153
HD1         5.3477886329        8.9741178215        2.7984352492
CE1         4.6591135435       11.0198123690        2.9245009443
HE1         5.0807524760       11.1868256435        3.9063336791
CZ          3.9609296749       12.0587673230        2.2708963121
OH          3.8148016236       13.2701086807        2.8704961666
HH          4.2343522410       13.2862668305        3.7404497983
CE2         3.4124373185       11.8378267471        0.9893308862
HE2         2.8786468615       12.6370720001        0.4936334808
CD2         3.5627686197       10.5846777884        0.3633740629
HD2         3.1421610745       10.4193291157       -0.6214351014
C           6.9100070001        8.5908352952       -0.1489188072
O           7.6148672264        7.7320881034        0.3904310978
N           7.2803622259        9.8715060798       -0.2244392270
H           6.6510399183       10.5321905259       -0.6599967903
CA          8.5480494892       10.4028169471        0.2868949539
HA2         8.5873923951       10.2655264493        1.3679769067
HA3         9.3780104608        9.8510406337       -0.1557474695
C           8.7429322400       11.8924987035       -0.0187468715
O           7.8978002333       12.5263304718       -0.6588890622
N           9.8617840012       12.4577571528        0.4383943079
H          10.5141112804       11.8825731294        0.9550939311
CA         10.2249166175       13.8669214634        0.2462378312
HA2        10.2786968491       14.0850414698       -0.8209346263
HA3         9.4541991883       14.5028725881        0.6831106652
C          11.5710700345       14.2355779221        0.8815544366
O          12.2370111901       13.3912473175        1.4892422446
N          11.9731825263       15.5008928796        0.7413590774
H          11.3665407264       16.1389944126        0.2445306289
CA         13.2200436968       16.0588363293        1.2828032031
HA         13.5045671927       15.4985539971        2.1752211833
CB         14.3389063258       15.9039942831        0.2371291478
HB2        14.4587274404       14.8448555441        0.0035522366
HB3        14.0354872361       16.4076589204       -0.6824023936
CG         15.6853249004       16.4505048207        0.6787184948
CD1        16.1283936456       17.7048712099        0.2117276194
HD1        15.5218431092       18.2714396395       -0.4845534754
CE1        17.3567360638       18.2309789881        0.6575183331
HE1        17.7005189090       19.1937182833        0.3053669111
CZ         18.1477000306       17.5025639891        1.5715186558
OH         19.3341392133       18.0125760994        1.9963274022
HH         19.7742628188       17.4146563889        2.6139998315
CE2        17.7062215490       16.2434430332        2.0345719787
HE2        18.3119970637       15.6826559405        2.7332486538
CD2        16.4757446024       15.7209452455        1.5887860300
HD2        16.1366433904       14.7570148435        1.9494076863
C          13.0492629011       17.5336213252        1.6923511589
O          12.2478031534       18.2620961640        1.0986709760
N          13.8189220617       17.9795967019        2.6897452663
H          14.4711219731       17.3322989729        3.1110682311
CA         13.9093445186       19.3763046474        3.1311851687
HA         13.7168894074       20.0296991650        2.2785203993
CB         12.8386150139       19.6470355204        4.2013182191
HB2        11.8609142595       19.3792907620        3.7975243666
HB3        13.0235772147       19.0000409275        5.0605695764
CG         12.7762844196       21.0911603440        4.6656599320
CD1        13.3271177945       21.4626870257        5.9089233582
HD1        13.7882144334       20.7154623008        6.5437176914
CE1        13.2848924342       22.8071782180        6.3286280227
HE1        13.7090025490       23.0908555145        7.2822183891
CZ         12.6895807205       23.7856883940        5.5026594456
OH         12.6456872965       25.0849682415        5.9004500615
HH         13.0559759020       25.2027583029        6.7670434158
CE2        12.1378464870       23.4123419551        4.2583466317
HE2        11.6824601757       24.1657555125        3.6302531465
CD2        12.1816444498       22.0672541323        3.8416200507
HD2        11.7562007208       21.7841218441        2.8861053506
C          15.3200887816       19.6936041276        3.6621085116
O          15.9671464608       18.8346955882        4.2702765465
N          15.7931543733       20.9278547736        3.4487683164
H          15.1921012611       21.5833319920        2.9683071807
CH3        17.1100163494       21.4007735505        3.8756020490
HH31       17.8920126450       20.7760175251        3.4389130883
HH32       17.2605583084       22.4323877236        3.5522853906
HH33       17.1889127835       21.3569207026        4.9636510180
         110
Energy of minimum      2=    -153.3086854     first found at step        0 after                32762 function calls
HH31        2.1565462391        1.7203978978       -3.9922478752
CH3         2.2294871382        2.8068608231       -4.0080301699
HH32        1.3804568526        3.2375748644       -3.4793617232
HH33        2.2315296056        3.1576812177       -5.0389478028
C           3.5097485432        3.2377724815       -3.3317451685
O           4.2761801833        2.3949756047       -2.8679770775
N           3.7393564522        4.5481516218       -3.2754678566
H           3.0432746245        5.1644606530       -3.6710419937
CA          4.9124296020        5.1773420557       -2.6545761981
HA          5.2890870153        4.5278185691       -1.8625387194
CB          6.0196170426        5.3420746067       -3.7122272112
HB2         6.3016780445        4.3557015719       -4.0838533965
HB3         5.6197760464        5.9060190877       -4.5568584067
CG          7.2694207687        6.0405712986       -3.2034536375
CD1         7.4783047258        7.4073492225       -3.4805880738
HD1         6.7651025213        7.9547205941       -4.0851196660
CE1         8.6072508700        8.0698722860       -2.9601801984
HE1         8.7702131486        9.1187079157       -3.1658484219
CZ          9.5342099443        7.3659779077       -2.1623910659
OH         10.6217719567        8.0098827809       -1.6617065861
HH         11.1773776747        7.4133736217       -1.1440167413
CE2         9.3293307049        5.9950200965       -1.8918023467
HE2        10.0394206383        5.4534559090       -1.2818714708
CD2         8.1968834269        5.3358527938       -2.4107199076
HD2         8.0375572190        4.2860636451       -2.1946239763
C           4.5597747851        6.5341995312       -2.0178898466
O           3.6743617275        7.2468033101       -2.5012707611
N           5.2811313232        6.9076167160       -0.9568039301
H           5.9980898148        6.2757889513       -0.6273599897
CA          5.2603296539        8.2410779588       -0.3464411933
HA          4.9996178427        8.9757877197       -1.1102328224
CB          4.1923714724        8.2926151144        0.7578036351
HB2         3.2267730309        8.0212195258        0.3282080622
HB3         4.4314307319        7.5485218211        1.5195672895
CG          4.0552885153        9.6544163518        1.4147183443
CD1         4.6431508269        9.8985386719        2.6725127760
HD1         5.1808092460        9.1084921731        3.1831423555
CE1         4.5398704515       11.1717839119        3.2671411616
HE1         4.9926628594       11.3580244561        4.2314864779
CZ          3.8457968031       12.2064341719        2.6024251338
OH          3.7426619038       13.4377319424        3.1694260354
HH          4.1869687155       13.4699932160        4.0265453198
CE2         3.2565775491       11.9603570929        1.3437212715
HE2         2.7261486011       12.7564252910        0.8393786801
CD2         3.3622732900       10.6864161746        0.7515161338
HD2         2.9104653011       10.5017293297       -0.2158825070
C           6.6502603166        8.6046443995        0.2063978567
O           7.3516223261        7.7466015779        0.7513991569
N           7.0455962530        9.8740272193        0.0824606673
H           6.4184372395       10.5354967643       -0.3550207847
CA          8.3383215931       10.3918037602        0.5424089743
HA2         8.4053431913       10.2853282211        1.6256015170
HA3         9.1434344290        9.8090529881        0.0936113683
C           8.5562299625       11.8672267058        0.1871768272
O           7.7070649411       12.5006453347       -0.4480184961
N           9.6993546430       12.4206752565        0.5961788507
H          10.3536000072       11.8465316561        1.1116106221
CA         10.0868968022       13.8152240971        0.3521022099
HA2        10.1152219263       14.0007871421       -0.7221833731
HA3         9.3425375245       14.4805993805        0.7908531404
C          11.4579749793       14.1723871088        0.9388183715
O          12.1226212642       13.3316260869        1.5528311373
N          11.8828462445       15.4238651195        0.7499329184
H          11.2761888843       16.0604291869        0.2511538158
CA         13.1560780750       15.9698115194        1.2399275628
HA         13.4544688884       15.4282533036        2.1393351573
CB         14.2398901677       15.7618193010        0.1676681047
HB2        14.3166087980       14.6959006501       -0.0529356230
HB3        13.9287660465       16.2621281790       -0.7511125495
CG         15.6168621443       16.2647128196        0.5638689514
CD1        16.0989436967       17.4878443273        0.0544414002
HD1        15.4952625905       18.0642350832       -0.6363810945
CE1        17.3646390937       17.9681141399        0.4450996994
HE1        17.7332266894       18.9061651117        0.0530372026
CZ         18.1532287784       17.2227892324        1.3488265217
OH         19.3791114406       17.6753901107        1.7240421464
HH         19.5911374796       18.5157944105        1.2982209480
CE2        17.6700849123       15.9977049592        1.8568971344
HE2        18.2793868950       15.4305001083        2.5470783475
CD2        16.4035233154       15.5207808394        1.4653202975
HD2        16.0357107622       14.5803945997        1.8583216529
C          13.0255411865       17.4583844387        1.6120802278
O          12.2252151296       18.1864540350        1.0163042523
N          13.8219238120       17.9153172374        2.5832368163
H          14.4743748927       17.2693433220        3.0062386412
CA         13.9193625887       19.3167292928        3.0093732729
HA         13.7189353273       19.9616414922        2.1521036619
CB         12.8589432638       19.5979397999        4.0876450110
HB2        11.8776615146       19.3231602856        3.6975179654
HB3        13.0544827052       18.9612737845        4.9522620279
CG         12.7962850002       21.0470802544        4.5362353510
CD1        13.3480734795       21.4325976138        5.7748235737
HD1        13.8099465644       20.6926844141        6.4175578216
CE1        13.3059613058       22.7816942782        6.1794787192
HE1        13.7308636691       23.0761039029        7.1294555375
CZ         12.7097156990       23.7507871815        5.3431575730
OH         12.6659381762       25.0544280705        5.7264151991
HH         13.0769489351       25.1819789426        6.5912827528
CE2        12.1569056689       23.3634236157        4.1036201695
HE2        11.7006989422       24.1096619094        3.4676039578
CD2        12.2005715856       22.0137679356        3.7019413391
HD2        11.7741105259       21.7198680531        2.7501321895
C          15.3343776097       19.6411686041        3.5247052097
O          16.0009800504       18.7800510573        4.1079868229
N          15.7892265688       20.8849274298        3.3272548969
H          15.1728957288       21.5407013086        2.8668078446
CH3        17.0996339319       21.3723358021        3.7577013884
HH31       17.8901278709       20.7542464781        3.3273714116
HH32       17.2411729444       22.4043093614        3.4313826022
HH33       17.1739081240       21.3333569757        4.8462790266
         110
Energy of minimum      3=    -153.1258550     first found at step        0 after                50030 function calls
HH31        1.2786844314        3.1219494005       -3.9157810050
CH3         1.9128452340        3.7226002656       -4.5661994414
HH32        1.3379998051        4.5551634055       -4.9690004073
HH33        2.2834490083        3.1071036883       -5.3845396881
C           3.0828042889        4.2598224932       -3.7758288243
O           3.1965725046        3.9926073898       -2.5805353498
N           3.9548102385        5.0157544991       -4.4398486982
H           3.7756273412        5.1927896976       -5.4169165968
CA          5.1364436589        5.6396942046       -3.8308430833
HA          5.6454349638        4.8870244431       -3.2260772945
CB          6.1075048213        6.0825944770       -4.9390494879
HB2         6.4044104241        5.2067726306       -5.5184290336
HB3         5.5855973740        6.7613281676       -5.6159633938
CG          7.3610246357        6.7702621523       -4.4246356275
CD1         7.4495052228        8.1776035159       -4.4324305395
HD1         6.6382659431        8.7710640553       -4.8367074280
CE1         8.5859693923        8.8176777372       -3.9004008080
HE1         8.6571452986        9.8964981729       -3.8996041202
CZ          9.6408701989        8.0512901485       -3.3609697581
OH         10.7351374571        8.6734730287       -2.8475992683
HH         11.3832229670        8.0357301473       -2.5223452375
CE2         9.5559173579        6.6415265888       -3.3607805127
HE2        10.3639133441        6.0523907321       -2.9489580354
CD2         8.4158862489        6.0041167554       -3.8901780136
HD2         8.3494411405        4.9226253375       -3.8803936746
C           4.7762839166        6.8167681280       -2.9026852849
O           3.8256953038        7.5623998495       -3.1597909423
N           5.5757901201        7.0151689845       -1.8502558194
H           6.3439059907        6.3728322173       -1.7134877405
CA          5.5561177733        8.1979592804       -0.9833334404
HA          5.1874429303        9.0505033565       -1.5562915842
CB          4.6024408224        7.9623444312        0.1988431571
HB2         3.6117484206        7.7207914904       -0.1894495299
HB3         4.9489781226        7.0989414599        0.7694122303
CG          4.4717337227        9.1558701993        1.1279808808
CD1         3.6746957744       10.2547936159        0.7503154641
HD1         3.1395302577       10.2371139701       -0.1917659812
CE1         3.5725039969       11.3787552981        1.5939634658
HE1         2.9606172310       12.2215856840        1.3024822125
CZ          4.2711964818       11.4055773721        2.8208900650
OH          4.1792872550       12.4872488831        3.6392718282
HH          3.6040976443       13.1662528347        3.2634618954
CE2         5.0685128266       10.3040125144        3.1986656761
HE2         5.6018158776       10.3303075462        4.1390154737
CD2         5.1680673932        9.1814764175        2.3532677255
HD2         5.7858735068        8.3407688591        2.6454385613
C           6.9766357563        8.5346473143       -0.4950806520
O           7.7702289345        7.6333860486       -0.2065922414
N           7.2965383711        9.8265741020       -0.3873926939
H           6.5969454683       10.5189011139       -0.6186933441
CA          8.6030747300       10.3269439116        0.0522326147
HA2         8.7863328906       10.0057128432        1.0780820911
HA3         9.3850230974        9.9054367025       -0.5802806544
C           8.7112097828       11.8552968926       -0.0025184651
O           7.7723075018       12.5450912811       -0.4129365659
N           9.8609896710       12.3909719393        0.4114627700
H          10.5912243407       11.7701066932        0.7349232771
CA         10.1527190981       13.8293500299        0.4333165139
HA2        10.0636990466       14.2325892153       -0.5760377177
HA3         9.4243002104       14.3375372362        1.0661279253
C          11.5565202844       14.1527824118        0.9590448117
O          12.3205243508       13.2520952983        1.3205920558
N          11.8976280044       15.4428086045        1.0020577034
H          11.2129940012       16.1245369693        0.7044911860
CA         13.1850678314       15.9634354714        1.4822332912
HA         13.5981274450       15.2718243370        2.2186684725
CB         14.1662793352       16.0538635448        0.2997304849
HB2        14.2886586561       15.0598049430       -0.1333521207
HB3        13.7327936879       16.6934944148       -0.4711400765
CG         15.5400605639       16.5860981725        0.6684726865
CD1        15.8806505016       17.9246088371        0.3852545302
HD1        15.1731143942       18.5707734617       -0.1202874525
CE1        17.1385284528       18.4297450628        0.7685615261
HE1        17.4044227010       19.4561705768        0.5568689135
CZ         18.0616132580       17.5963122625        1.4355790208
OH         19.2757816065       18.0870530225        1.8005176338
HH         19.8093089120       17.4149001080        2.2435699582
CE2        17.7222499270       16.2538992822        1.7139062808
HE2        18.4291339663       15.6129641953        2.2229375155
CD2        16.4621468954       15.7521941837        1.3314999662
HD2        16.2020065504       14.7233703995        1.5507004235
C          13.0215445200       17.3326353191        2.1681198732
O          12.1286572506       18.1097149502        1.8154513333
N          13.8973880524       17.6379449838        3.1302771193
H          14.6178288050       16.9628058265        3.3471314428
CA         13.9992836326       18.9387523527        3.8021017326
HA         13.6793432294       19.7198849306        3.1103866951
CB         13.0655513267       18.9602722755        5.0238267806
HB2        12.0533412007       18.7150478871        4.6983523834
HB3        13.3787855722       18.1839105610        5.7240211334
CG         13.0171299626       20.2954852286        5.7448410946
CD1        13.7070740890       20.4721015154        6.9612089665
HD1        14.2671932543       19.6513936988        7.3930472209
CE1        13.6744772851       21.7186365963        7.6169573100
HE1        14.2028361207       21.8604990501        8.5497487139
CZ         12.9510607277       22.7936809593        7.0576003288
OH         12.9230312866       23.9949293349        7.6936328873
HH         12.3943723122       24.6401005067        7.2063231781
CE2        12.2595348076       22.6160811928        5.8391805173
HE2        11.7036504117       23.4381154917        5.4090036782
CD2        12.2939927719       21.3680633435        5.1858824784
HD2        11.7616627688       21.2334969599        4.2516269280
C          15.4554729704       19.2335344342        4.2087476814
O          16.2011947487       18.3175547052        4.5709027440
N          15.8587626897       20.5095256618        4.1653450425
H          15.1813102577       21.2056793200        3.8857534863
CH3        17.2039436519       20.9703351128        4.5090514694
HH31       17.9429289738       20.4738939117        3.8766084934
HH32       17.2798140256       22.0490577795        4.3606387607
HH33       17.4223326879       20.7417200515        5.5540607963
         110
Energy of minimum      4=    -153.0984208     first found at step        0 after                 8384 function calls
HH31        1.6837969491        1.0492808527       -0.8123839416
CH3         1.9984660623        1.9500918618       -1.3372590352
HH32        1.1868390445        2.6761183279       -1.3354747204
HH33        2.2610757783        1.7012360141       -2.3643791203
C           3.2020447823        2.5448007259       -0.6445643204
O           3.6669780490        2.0035629536        0.3572767737
N           3.7040220353        3.6571079063       -1.1772865048
H           3.2438452015        4.0365185725       -1.9928419021
CA          4.8585952307        4.4007776604       -0.6561072906
HA          4.9356176438        4.2320933314        0.4193683318
CB          6.1423643060        3.8735145527       -1.3213822368
HB2         6.2462092081        2.8114884095       -1.0934318936
HB3         6.0418460360        3.9652497103       -2.4043239692
CG          7.4116507157        4.5829733258       -0.8821786077
CD1         8.0069516809        5.5511676035       -1.7167771770
HD1         7.5727099275        5.7754443311       -2.6837632445
CE1         9.1643279476        6.2351673282       -1.2951771060
HE1         9.6199214713        6.9765755010       -1.9372595664
CZ          9.7303879930        5.9509597449       -0.0331771215
OH         10.8516410331        6.6011740332        0.3771539671
HH         11.1662301144        7.2213489949       -0.2926840361
CE2         9.1342438607        4.9809018563        0.8011118168
HE2         9.5732856932        4.7666191564        1.7657904750
CD2         7.9765585159        4.2989753817        0.3768552000
HD2         7.5211007916        3.5561953252        1.0209405150
C           4.7051133867        5.9159888582       -0.8820544533
O           4.0978136619        6.3473627472       -1.8672679696
N           5.2779760726        6.7232124582        0.0158070935
H           5.7788520262        6.2979615025        0.7840337511
CA          5.3709892623        8.1833312148       -0.0950381788
HA          5.4195629226        8.4558925479       -1.1507297150
CB          4.1153796992        8.8283319034        0.5156895501
HB2         3.2330043625        8.4298621401        0.0125262240
HB3         4.0464151817        8.5452925853        1.5674876474
CG          4.0823225059       10.3420352630        0.4023656665
CD1         4.3902280950       11.1447287515        1.5194576787
HD1         4.6327978776       10.6845400813        2.4698191482
CE1         4.3914824719       12.5485416262        1.4013525728
HE1         4.6290299036       13.1695836110        2.2541263645
CZ          4.0839089271       13.1546107815        0.1644586765
OH          4.0877467074       14.5096640228        0.0549155781
HH          3.8605914501       14.7919829044       -0.8405139033
CE2         3.7730249305       12.3500567695       -0.9537046051
HE2         3.5363143751       12.8122940502       -1.9024013294
CD2         3.7734566765       10.9462093844       -0.8325736419
HD2         3.5369880837       10.3306107425       -1.6924389094
C           6.6480679514        8.7064246754        0.5880490808
O           7.0913801981        8.1525965051        1.5988141398
N           7.2294202830        9.7839138596        0.0547496937
H           6.8071786392       10.2051526981       -0.7618738943
CA          8.4258599056       10.4394158527        0.5930061999
HA2         8.2267235970       10.7706552079        1.6128046814
HA3         9.2503299430        9.7263764893        0.6230275403
C           8.8672499473       11.6543029250       -0.2319751656
O           8.3070860275       11.9377584909       -1.2956501880
N           9.8767954879       12.3773634017        0.2562452370
H          10.2929825578       12.0911766570        1.1327447146
CA         10.4351987376       13.5731753041       -0.3863256932
HA2        10.8062890616       13.3120619601       -1.3780016492
HA3         9.6502914910       14.3209618541       -0.5049314051
C          11.5855584432       14.2039751301        0.4076663516
O          11.9624197380       13.7116604645        1.4759596030
N          12.1453946383       15.2974609399       -0.1150560000
H          11.7722842626       15.6514024976       -0.9854220667
CA         13.2469334486       16.0579619480        0.4910577658
HA         13.2114996383       15.9360847635        1.5751115859
CB         14.5875376960       15.4962395544       -0.0154000483
HB2        14.6518947330       14.4409486170        0.2546158020
HB3        14.6063123069       15.5549925909       -1.1051131018
CG         15.8104578158       16.2060090852        0.5388671204
CD1        16.4983086257       17.1517087646       -0.2487487721
HD1        16.1727319657       17.3560888204       -1.2616351628
CE1        17.6051056418       17.8423806333        0.2825864364
HE1        18.1348626901       18.5709557743       -0.3154105784
CZ         18.0291300856       17.5878487831        1.6043377293
OH         19.0999657245       18.2541809614        2.1118068214
HH         19.2849267212       17.9846288984        3.0205799031
CE2        17.3433684497       16.6362087274        2.3909879083
HE2        17.6681647690       16.4380688490        3.4033338654
CD2        16.2349238532       15.9487605209        1.8575391305
HD2        15.7071668995       15.2228085782        2.4647191189
C          13.1302472861       17.5631383040        0.1865700753
O          12.6077845090       17.9536207205       -0.8622523886
N          13.6378448550       18.4064042206        1.0906222625
H          14.0741970770       18.0130684107        1.9132745455
CA         13.7532017423       19.8598433810        0.9231499048
HA         13.8756771206       20.0848345495       -0.1376887079
CB         12.4642366535       20.5376355215        1.4172275901
HB2        11.6132150739       20.1036500743        0.8899188153
HB3        12.3334809039       20.3210797694        2.4788926896
CG         12.4324933437       22.0405817237        1.2047654377
CD1        12.6549982291       22.9164725776        2.2866434323
HD1        12.8390475608       22.5194975343        3.2778325009
CE1        12.6440221968       24.3106966359        2.0826581353
HE1        12.8160884413       24.9813790586        2.9134740804
CZ         12.4096560747       24.8329781428        0.7917684000
OH         12.3982568520       26.1769400681        0.5870041634
HH         12.5632345861       26.6602429519        1.4070018043
CE2        12.1863843707       23.9549762239       -0.2905324187
HE2        12.0066008407       24.3605184466       -1.2767995414
CD2        12.1979728068       22.5615100511       -0.0832686056
HD2        12.0252180571       21.8904752735       -0.9163600460
C          14.9879919241       20.4015919025        1.6678404399
O          15.3451002817       19.8959409127        2.7369827909
N          15.6320205717       21.4377212850        1.1161670935
H          15.2615823783       21.8144694782        0.2544279301
CH3        16.8227124644       22.0741713110        1.6793273273
HH31       17.6226943567       21.3393170058        1.7913687298
HH32       17.1672426639       22.8735489991        1.0207541721
HH33       16.5926458534       22.4983672293        2.6586770318
         110
Energy of minimum      5=    -153.0819266     first found at step        0 after                 3826 function calls
HH31        1.1733267866        2.1235265594       -3.2919025703
CH3         1.3492779266        3.1916188479       -3.4110278932
HH32        0.6096800697        3.7496117850       -2.8387559185
HH33        1.2715810334        3.4592350660       -4.4637452052
C           2.7321347042        3.5355075236       -2.9094764065
O           3.4595303162        2.6547197583       -2.4535190561
N           3.0927538446        4.8145621976       -2.9929825283
H           2.4203553600        5.4686564183       -3.3683323097
CA          4.3825856048        5.3624152433       -2.5526506386
HA          4.7800513376        4.7383507755       -1.7504043047
CB          5.3749227209        5.3282638725       -3.7285796608