         110
Energy of minimum      1=    -153.4201795     first found at step        0 after                 9511 function calls
HH31        0.1771517270        2.7073333186        1.1871617484
CH3         0.5219567294        3.4464606831        0.4655168174
HH32       -0.0664750755        4.3572215669        0.5661096491
HH33        0.4105627690        3.0514864016       -0.5431736719
C           1.9773016338        3.7614762418        0.7201713655
O           2.5775802636        3.2041318445        1.6376847058
N           2.5420343148        4.6541869732       -0.0904633684
H           1.9635822315        5.0704452640       -0.8066800996
CA          3.9358793415        5.1104863410       -0.0095250517
HA          4.2817611962        5.0207498040        1.0216773662
CB          4.8165642654        4.2098248306       -0.8948980946
HB2         4.7490029370        3.1833724339       -0.5309606035
HB3         4.4223454123        4.2210167214       -1.9126240228
CG          6.2811217850        4.6118492447       -0.9305401066
CD1         6.7871405130        5.3448113251       -2.0237038061
HD1         6.1407775007        5.5956287185       -2.8561989365
CE1         8.1312877161        5.7660579396       -2.0308022098
HE1         8.5237480249        6.3320612242       -2.8642806288
CZ          8.9757542350        5.4527794169       -0.9444518185
OH         10.2723072830        5.8614364238       -0.9558506494
HH         10.7383643349        5.5781613568       -0.1588513012
CE2         8.4709564444        4.7113289770        0.1465241493
HE2         9.1170865680        4.4686551730        0.9790857989
CD2         7.1247886327        4.2943532821        0.1523525480
HD2         6.7376333784        3.7327115939        0.9942614292
C           4.0748240910        6.5874901185       -0.4221061388
O           3.3225079919        7.0785512858       -1.2696734435
N           5.0599006590        7.2849739963        0.1515557036
H           5.6488530471        6.8087215155        0.8210901518
CA          5.4849802541        8.6321346125       -0.2441385650
HA          5.2908687898        8.7640783610       -1.3099767770
CB          4.6734775135        9.6851064929        0.5304342410
HB2         3.6106714319        9.5157690779        0.3507993744
HB3         4.8497931869        9.5549044468        1.5995599227
CG          4.9997765920       11.1156258748        0.1384259895
CD1         5.8125372070       11.9145199274        0.9686776375
HD1         6.1817971617       11.5220167970        1.9085077145
CE1         6.1592588496       13.2214272342        0.5718528561
HE1         6.7857599572       13.8368865157        1.2023386921
CZ          5.6925520899       13.7335400735       -0.6577074747
OH          6.0305115673       14.9921980600       -1.0448950993
HH          5.6396453400       15.1995289919       -1.9040247161
CE2         4.8728524136       12.9353088691       -1.4852525776
HE2         4.5127263215       13.3260399760       -2.4272258909
CD2         4.5289972183       11.6288624495       -1.0862215820
HD2         3.9055887796       11.0160211472       -1.7265640502
C           6.9958974110        8.8222880447       -0.0141560865
O           7.5702326761        8.2343092253        0.9075292296
N           7.6343333148        9.6674651292       -0.8275942224
H           7.1001070740       10.1390947783       -1.5450042025
CA          9.0478851109       10.0362784181       -0.7077330304
HA2         9.2795626835       10.2386271506        0.3388144362
HA3         9.6740693004        9.2081600912       -1.0407084551
C           9.4037986116       11.2779827168       -1.5330626301
O           8.7191298446       11.6104554748       -2.5052236116
N          10.4714771340       11.9740742382       -1.1395858040
H          10.9892366592       11.6425004347       -0.3362833147
CA         10.9415284422       13.2168991743       -1.7625951567
HA2        11.2984393303       13.0091628889       -2.7717200159
HA3        10.1124194789       13.9220979804       -1.8333844518
C          12.0763838814       13.8816621359       -0.9744326481
O          12.6251098552       13.2896288845       -0.0393639014
N          12.4230875987       15.1175262159       -1.3415678881
H          11.9225823182       15.5442853216       -2.1090000090
CA         13.4455548228       15.9357913930       -0.6758302765
HA         13.5694696422       15.5839923743        0.3498722559
CB         14.7898240182       15.7663474758       -1.4019947187
HB2        15.0527203868       14.7072943032       -1.4131856473
HB3        14.6757483110       16.0847022693       -2.4396837239
CG         15.9355469692       16.5355385594       -0.7689351502
CD1        16.3554450597       17.7635829445       -1.3195439991
HD1        15.8714047102       18.1547933487       -2.2064404855
CE1        17.4019307812       18.4891374950       -0.7163972961
HE1        17.7229594333       19.4309998688       -1.1399001404
CZ         18.0323161940       17.9855453626        0.4425756058
OH         19.0470492707       18.6766230588        1.0267363992
HH         19.2376371560       19.4945619561        0.5498284903
CE2        17.6120274969       16.7551055728        0.9919065611
HE2        18.0996478259       16.3737777107        1.8785617117
CD2        16.5645650850       16.0326290424        0.3871092737
HD2        16.2436749728       15.0891949938        0.8125550726
C          13.0285593784       17.4153873800       -0.6122792665
O          12.4331066015       17.9388006167       -1.5590035396
N          13.3606124156       18.0864098058        0.4953652264
H          13.9021613858       17.6022626241        1.1974625008
CA         13.0400929622       19.4927204361        0.7734605594
HA         12.8660474324       20.0178814996       -0.1671669307
CB         11.7585824900       19.5796668121        1.6226774608
HB2        11.9083820074       19.0228616017        2.5494244444
HB3        11.5957723839       20.6224116493        1.9002110437
CG         10.4991574898       19.0757437001        0.9372146273
CD1         9.7861502849       19.9278606845        0.0705175826
HD1        10.1351915072       20.9381281414       -0.1052000113
CE1         8.6195525937       19.4681966846       -0.5709481219
HE1         8.0692277219       20.1177140686       -1.2377077001
CZ          8.1627685258       18.1515534071       -0.3498985672
OH          7.0376665440       17.7176142660       -0.9763892993
HH          6.8348143389       16.7945991120       -0.7589993810
CE2         8.8744462449       17.2968987276        0.5204159975
HE2         8.5233025577       16.2886411066        0.6920964184
CD2        10.0390321576       17.7618370050        1.1646753835
HD2        10.5832307897       17.1060544765        1.8332064835
C          14.2040358802       20.1954935842        1.4947672049
O          14.9329164384       19.5701592890        2.2716269104
N          14.3632979076       21.5047001047        1.2642411989
H          13.7202401798       21.9496487558        0.6231670689
CH3        15.4030758055       22.3373318947        1.8699068361
HH31       16.3910620585       21.9474709372        1.6165377936
HH32       15.3238918033       23.3623529801        1.5027725280
HH33       15.2941973401       22.3425896674        2.9563898966
         110
Energy of minimum      2=    -153.2478295     first found at step        0 after                 8116 function calls
HH31        0.6525345473        2.9560498869        1.8564220423
CH3         0.9301282453        3.6862608376        1.0976704452
HH32        0.3713240020        4.6074728998        1.2556602281
HH33        0.7043055135        3.2893353294        0.1090743873
C           2.4095039456        3.9769908243        1.1926836743
O           3.0954645615        3.4129378781        2.0436115691
N           2.8987331470        4.8565748569        0.3209064289
H           2.2536270562        5.2802626293       -0.3311503682
CA          4.3005730379        5.2896484141        0.2491273377
HA          4.7537147080        5.1956783763        1.2374883086
CB          5.0638021753        4.3720101104       -0.7221041393
HB2         4.9871587581        3.3429245827       -0.3674126856
HB3         4.5825333160        4.4150758603       -1.7007734978
CG          6.5353390257        4.7131257089       -0.8792342017
CD1         6.9825415427        5.4164861861       -2.0165408143
HD1         6.2800288872        5.6984533259       -2.7917108167
CE1         8.3426310243        5.7603924355       -2.1473317551
HE1         8.6840378118        6.2992706827       -3.0205964453
CZ          9.2611596933        5.3994274616       -1.1373323761
OH         10.5765228823        5.7206608930       -1.2601302845
HH         10.7502064749        6.1899699102       -2.0860419821
CE2         8.8125825535        4.6938000260       -0.0001108999
HE2         9.5210344199        4.4186656891        0.7691034472
CD2         7.4516584555        4.3525860384        0.1283740284
HD2         7.1109418936        3.8123439021        1.0036314420
C           4.4151529060        6.7638355935       -0.1802798091
O           3.5792993863        7.2643773080       -0.9395265921
N           5.4607258174        7.4531954902        0.2863540797
H           6.1217059350        6.9700426346        0.8793666446
CA          5.8113462533        8.8247706383       -0.1008747250
HA          5.4981917054        8.9912504638       -1.1330037345
CB          5.0639204543        9.8233040453        0.8013717274
HB2         3.9922632559        9.6307777901        0.7309057727
HB3         5.3588203677        9.6545093515        1.8385062946
CG          5.3078666884       11.2784912618        0.4412434724
CD1         6.1652758071       12.0736587341        1.2291320034
HD1         6.6291542985       11.6592061267        2.1161115770
CE1         6.4328933302       13.4063227520        0.8576369276
HE1         7.0926636613       14.0192758618        1.4557378363
CZ          5.8425159734       13.9478425718       -0.3042902642
OH          6.1034884863       15.2318082378       -0.6671370502
HH          5.6357704672       15.4558925676       -1.4825496909
CE2         4.9785596515       13.1529630964       -1.0889343916
HE2         4.5234220802       13.5663114361       -1.9786881591
CD2         4.7134020985       11.8209757568       -0.7151129235
HD2         4.0547901298       11.2114627947       -1.3225517024
C           7.3330794021        9.0529641809       -0.0290911776
O           8.0277466062        8.4198790032        0.7717920451
N           7.8481073606        9.9814255835       -0.8395065726
H           7.2198136682       10.4827869682       -1.4532556374
CA          9.2487588635       10.4137574226       -0.8351887539
HA2         9.5797562070       10.5510535117        0.1951220782
HA3         9.8732032994        9.6467568743       -1.2935735344
C           9.4596175620       11.7295586861       -1.5930972321
O           8.6676467024       12.0898481077       -2.4689610867
N          10.5246635570       12.4557759722       -1.2502064496
H          11.1342795550       12.0987023613       -0.5261947604
CA         10.8703482736       13.7630723650       -1.8205531471
HA2        11.1293581682       13.6468643983       -2.8733141581
HA3        10.0072183988       14.4266070982       -1.7537391639
C          12.0497919123       14.4292339563       -1.1020093128
O          12.7109378423       13.8060742622       -0.2650295517
N          12.3095247224       15.7001552737       -1.4178307956
H          11.7198432075       16.1503716542       -2.1042355272
CA         13.3590697801       16.5213566837       -0.7994598495
HA         13.5973397837       16.1116402295        0.1836703744
CB         14.6312501302       16.4607804619       -1.6601596227
HB2        14.9341257115       15.4179309998       -1.7676942331
HB3        14.4033543486       16.8385269867       -2.6584224821
CG         15.8014362386       17.2409992906       -1.0883036829
CD1        16.1138552494       18.5208413215       -1.5902592130
HD1        15.5287160368       18.9452314920       -2.3973765664
CE1        17.1840249511       19.2549061675       -1.0414119938
HE1        17.4224452081       20.2365732138       -1.4274323969
CZ         17.9461326769       18.7078650822        0.0141156160
OH         18.9840730062       19.4074224743        0.5449665976
HH         19.0925483188       20.2628469486        0.1098939424
CE2        17.6333139114       17.4256902172        0.5146668507
HE2        18.2214576819       17.0113912030        1.3220013856
CD2        16.5618699242       16.6947623440       -0.0355017537
HD2        16.3237130625       15.7114989609        0.3524647989
C          12.8913792980       17.9729632550       -0.5968832161
O          12.1912803850       18.5293452353       -1.4484095037
N          13.2962088531       18.5842401572        0.5210970462
H          13.9190248402       18.0806801404        1.1368381344
CA         12.9425887600       19.9512310613        0.9262442680
HA         12.6619044028       20.5297193573        0.0445170405
CB         11.7404937767       19.9175450599        1.8880720356
HB2        11.9961378949       19.3053682156        2.7548029246
HB3        11.5601993348       20.9294555418        2.2546495353
CG         10.4466923379       19.4024433967        1.2791907625
CD1         9.6168204943       20.2806488053        0.5540999770
HD1         9.9000568430       21.3192203537        0.4336473570
CE1         8.4188554983       19.8103562064       -0.0181121600
HE1         7.7791321796       20.4797228897       -0.5766828213
CZ          8.0479913772       18.4569672431        0.1296779056
OH          6.8928219327       18.0125216640       -0.4311988992
HH          6.7600149927       17.0634652927       -0.2819272415
CE2         8.8766440157       17.5760393873        0.8587952077
HE2         8.5913350001       16.5394659376        0.9745579555
CD2        10.0720032364       18.0515027202        1.4353698824
HD2        10.7061912518       17.3754033355        1.9955405386
C          14.1359970286       20.6596289201        1.5917535695
O          14.9597685683       20.0191536529        2.2528530928
N          14.2162046254       21.9880085181        1.4451234809
H          13.4982374851       22.4436113607        0.8979207970
CH3        15.2698497442       22.8276107367        2.0162184253
HH31       16.2464569945       22.5065347397        1.6481698617
HH32       15.1124463118       23.8704532986        1.7343853665
HH33       15.2612532681       22.7516310100        3.1054763371
         110
Energy of minimum      3=    -153.1158797     first found at step      129 after               100474 function calls
HH31       -1.0854343571        1.4210650924        2.4548888817
CH3        -0.9655325836        2.3664505002        1.9277825124
HH32       -1.4433838384        2.3031483631        0.9512985101
HH33       -1.4243180280        3.1674275326        2.5055440476
C           0.5048804411        2.6610922103        1.7456158292
O           1.3489618374        1.8758569971        2.1742575486
N           0.8095985982        3.7915256048        1.1113855537
H           0.0466460230        4.3807893128        0.8088753988
CA          2.1712958978        4.2711651292        0.8408470541
HA          2.8460915238        3.8808258808        1.6046293507
CB          2.6335612740        3.7411074635       -0.5292308700
HB2         2.6446070089        2.6504159533       -0.4998906010
HB3         1.9063405701        4.0390884743       -1.2866404645
CG          4.0097874169        4.2259216717       -0.9530736687
CD1         5.1646954155        3.6458993826       -0.3918208547
HD1         5.0724089801        2.8282942105        0.3132598926
CE1         6.4410799937        4.1318209280       -0.7396151970
HE1         7.3266546567        3.6874157354       -0.3062748569
CZ          6.5643784804        5.2053624327       -1.6490749963
OH          7.7918329210        5.6832627366       -1.9853558735
HH          8.4947953991        5.1972492334       -1.5357332666
CE2         5.4074147659        5.7820465698       -2.2148400751
HE2         5.5078649865        6.6022263535       -2.9121104614
CD2         4.1332048478        5.2916344603       -1.8682476114
HD2         3.2478275550        5.7444520385       -2.2981234865
C           2.2527453069        5.8080874778        0.8869502627
O           1.2885334036        6.5014213815        0.5478303423
N           3.4184724766        6.3386023831        1.2681649648
H           4.1661973710        5.7056098284        1.5171541271
CA          3.7767577757        7.7568214915        1.1631614574
HA          3.2306026317        8.1976156725        0.3273813716
CB          3.3684203989        8.4981120826        2.4479366576
HB2         2.2856457513        8.4345618331        2.5658380394
HB3         3.8227298767        7.9985197480        3.3053179286
CG          3.7709481420        9.9620510084        2.4550118532
CD1         3.0816292605       10.8864008485        1.6446811934
HD1         2.2290576266       10.5634788089        1.0590595581
CE1         3.5127002249       12.2264029004        1.5760327544
HE1         2.9928874785       12.9310993874        0.9413051686
CZ          4.6376015780       12.6440882935        2.3206093317
OH          5.0889044183       13.9240798512        2.2260178562
HH          4.5161157396       14.4551044383        1.6569953124
CE2         5.3115783094       11.7228041655        3.1501502384
HE2         6.1705898722       12.0468132979        3.7211894909
CD2         4.8799839400       10.3842469564        3.2149909111
HD2         5.4172065067        9.6758346833        3.8340147587
C           5.2817939115        7.9226944477        0.8773546451
O           6.1071881713        7.1557953314        1.3828213211
N           5.6396648135        8.9371339459        0.0859998521
H           4.9140784155        9.5397479404       -0.2780499320
CA          7.0187935029        9.2868221098       -0.2684370022
HA2         7.5842947854        9.4900076045        0.6416954117
HA3         7.4890888069        8.4488215946       -0.7838989328
C           7.0970295971       10.5213070654       -1.1753539157
O           6.0750479247       11.0056116644       -1.6727515291
N           8.3077423455       11.0373976371       -1.3959689878
H           9.1079683178       10.5942096079       -0.9651632893
CA          8.5603161416       12.2320904854       -2.2103131659
HA2         8.3378880420       12.0158942592       -3.2556559010
HA3         7.8967643693       13.0336370407       -1.8827772622
C          10.0050054520       12.7362490599       -2.1195301289
O          10.8969058389       12.0165580113       -1.6596198294
N          10.2217572786       13.9837479494       -2.5441063810
H           9.4275654721       14.5089062211       -2.8809083816
CA         11.5035954435       14.7003393477       -2.4749156756
HA         12.2338098761       14.0807327443       -1.9521464512
CB         12.0411940851       14.9635031082       -3.8905916875
HB2        11.3316687863       15.5954318804       -4.4275725070
HB3        12.9743323749       15.5234208595       -3.8103828858
CG         12.3082094637       13.7091084165       -4.7054490685
CD1        13.4991693559       12.9818095137       -4.5076189983
HD1        14.2251416857       13.3199087423       -3.7780749620
CE1        13.7485150885       11.8132120597       -5.2547365104
HE1        14.6625445529       11.2559975253       -5.1006603194
CZ         12.8028920176       11.3681220295       -6.2044205380
OH         13.0356257777       10.2409151500       -6.9280739396
HH         13.8834213343        9.8407462017       -6.6950929989
CE2        11.6112598808       12.0977208214       -6.4035837681
HE2        10.8909894665       11.7525834135       -7.1326199042
CD2        11.3656779575       13.2662042711       -5.6556784787
HD2        10.4490733608       13.8222526151       -5.8105479666
C          11.3547779813       16.0077501789       -1.6792068578
O          10.3068144437       16.6594192221       -1.7366408593
N          12.3976374337       16.3910233501       -0.9354118637
H          13.2504354549       15.8532891800       -0.9927116684
CA         12.3478276260       17.4481919238        0.0871024803
HA         11.4898614137       18.0944132429       -0.1050581555
CB         12.1571101883       16.8055040111        1.4754108035
HB2        13.0812201899       16.2964348995        1.7549792287
HB3        11.9905287910       17.5956478873        2.2091775742
CG         11.0091292582       15.8106961697        1.5645382837
CD1        11.2628651552       14.4309413040        1.4219645570
HD1        12.2764731531       14.0770758281        1.2797928040
CE1        10.1984600767       13.5096885377        1.4417607644
HE1        10.3875937907       12.4524098306        1.3194827915
CZ          8.8744617134       13.9637781898        1.6146139376
OH          7.8539100665       13.0678965746        1.6239485653
HH          6.9993549394       13.4933830960        1.7890648481
CE2         8.6196263518       15.3433462721        1.7753987199
HE2         7.6048462502       15.6921011927        1.9098297270
CD2         9.6869366119       16.2642585440        1.7463038484
HD2         9.4882730282       17.3238553867        1.8514548295
C          13.6058835021       18.3353079255        0.0676800783
O          14.6746073095       17.9075930223       -0.3816711092
N          13.4891960242       19.5690335672        0.5745711058
H          12.5837024963       19.8453351023        0.9300287958
CH3        14.5761863079       20.5457247594        0.6521936199
HH31       15.3930114216       20.1509645736        1.2599508002
HH32       14.2164779377       21.4719579316        1.1043843340
HH33       14.9554259631       20.7659361688       -0.3478571109
         110
Energy of minimum      4=    -153.0984208     first found at step        0 after                 3566 function calls
HH31        1.7304015066        1.2029691210        0.0321301593
CH3         1.8933378928        2.1544840213       -0.4718957503
HH32        1.1019069216        2.8515935293       -0.2007290466
HH33        1.8893834936        2.0018504228       -1.5501147040
C           3.2275586568        2.7264392079       -0.0537707060
O           3.9362537379        2.1174723531        0.7460402080
N           3.5677129463        3.8952025658       -0.5934823180
H           2.9123432348        4.3274020932       -1.2295168194
CA          4.8096694425        4.6284559941       -0.3149231545
HA          5.1583125293        4.3719626964        0.6869220710
CB          5.8877976775        4.2004116216       -1.3263961915
HB2         6.0559504935        3.1267524154       -1.2282881362
HB3         5.5152542821        4.3801547439       -2.3364387083
CG          7.2202616763        4.9101725433       -1.1587695220
CD1         7.5755307719        5.9639064933       -2.0258143902
HD1         6.9083214635        6.2552361938       -2.8282399321
CE1         8.7955199910        6.6462440854       -1.8492817298
HE1         9.0665600101        7.4533987324       -2.5160351384
CZ          9.6655649641        6.2744708211       -0.8011174924
OH         10.8480719505        6.9229659183       -0.6293911450
HH         10.9768169658        7.6072483874       -1.2983070197
CE2         9.3094192272        5.2188802642        0.0656736917
HE2         9.9805934383        4.9378514309        0.8655659923
CD2         8.0884383872        4.5388222667       -0.1131548916
HD2         7.8180501431        3.7301362998        0.5553711349
C           4.5897719046        6.1517001042       -0.3578907953
O           3.7486062688        6.6453211912       -1.1157302603
N           5.3639045933        6.8979040902        0.4357307393
H           6.0470767871        6.4253475852        1.0117979199
CA          5.4121296474        8.3643822819        0.4367110035
HA          5.1890194465        8.7266468160       -0.5683362319
CB          4.3463148887        8.9151907849        1.3991134762
HB2         3.3689948812        8.5328542142        1.1004463222
HB3         4.5488120885        8.5421721749        2.4045977368
CG          4.2714618769       10.4312369872        1.4342401681
CD1         4.8449019129       11.1459686444        2.5053808854
HD1         5.3246979535       10.6150049373        3.3188143094
CE1         4.8030547810       12.5540686069        2.5173929541
HE1         5.2431488157       13.1080071517        3.3352036893
CZ          4.1863991259       13.2524806137        1.4573060293
OH          4.1496768487       14.6113783951        1.4725375758
HH          3.7003764444       14.9610442878        0.6921784738
CE2         3.6098239576       12.5358919658        0.3857151900
HE2         3.1360983402       13.0689413629       -0.4274041402
CD2         3.6540692600       11.1275553466        0.3761916508
HD2         3.2131706771       10.5796718647       -0.4482351144
C           6.8156823746        8.8681633277        0.8206502577
O           7.5058423372        8.2452155391        1.6333695670
N           7.2327964479       10.0048227847        0.2572828471
H           6.6134600820       10.4799756800       -0.3855674000
CA          8.5204031693       10.6501553845        0.5338428944
HA2         8.5831296795       10.8874717524        1.5964387958
HA3         9.3321964572        9.9636985464        0.2912611068
C           8.7269236588       11.9438684977       -0.2630420905
O           7.9128518968       12.2983093815       -1.1216421437
N           9.8204332338       12.6547746384        0.0183954238
H          10.4478242413       12.3088658336        0.7326037176
CA         10.1865486508       13.9177844430       -0.6338648188
HA2        10.2966269378       13.7533946390       -1.7063237552
HA3         9.3902491162       14.6475946270       -0.4834800717
C          11.4946239853       14.5154256784       -0.1014898454
O          12.1345093960       13.9467628636        0.7889133795
N          11.8934559660       15.6664385432       -0.6478128960
H          11.3086541859       16.0806756531       -1.3608609753
CA         13.1054789527       16.4075866613       -0.2725487522
HA         13.3470774908       16.1934088378        0.7700634931
CB         14.2791572359       15.9336011742       -1.1483731353
HB2        14.4197109754       14.8618371835       -0.9991888718
HB3        14.0206003872       16.0848622245       -2.1979194156
CG         15.5959282928       16.6324675643       -0.8581693329
CD1        16.0528399029       17.6627682093       -1.7052453472
HD1        15.4792977077       17.9416186057       -2.5810318599
CE1        17.2516510982       18.3408632487       -1.4096388422
HE1        17.6057235612       19.1338670758       -2.0537213813
CZ         17.9991679170       17.9890761945       -0.2654910597
OH         19.1573725950       18.6438062646        0.0139778579
HH         19.5691200374       18.3043851908        0.8189590863
CE2        17.5440879923       16.9530075399        0.5795949269
HE2        18.1166800337       16.6803926971        1.4556177000
CD2        16.3431172873       16.2782493425        0.2826558812
HD2        15.9932822625       15.4871449956        0.9353200610
C          12.9013626603       17.9286482062       -0.4013609757
O          12.1265227739       18.3896206846       -1.2455173327
N          13.6135946439       18.7081490912        0.4178868654
H          14.2478470141       18.2607238617        1.0655038011
CA         13.6691433327       20.1734738945        0.3580775112
HA         13.5166597881       20.4911475897       -0.6747980857
CB         12.5411929067       20.7657426506        1.2194087515
HB2        11.5884150439       20.3510736613        0.8863928140
HB3        12.6857972756       20.4561366704        2.2559221170
CG         12.4425856046       22.2795009910        1.1577047834
CD1        12.9238065633       23.0673936456        2.2229769372
HD1        13.3567508056       22.5940720994        3.0961579656
CE1        12.8484527894       24.4728176702        2.1544472451
HE1        13.2191762217       25.0759688574        2.9720349293
CZ         12.2897110060       25.0946781229        1.0163791643
OH         12.2142205690       26.4500979628        0.9426889822
HH         12.5770980851       26.8673253685        1.7347979783
CE2        11.8076608868       24.3046944188       -0.0492972012
HE2        11.3800102344       24.7862674794       -0.9180386795
CD2        11.8844308312       22.8997673979        0.0223058513
HD2        11.5124680048       22.2964358396       -0.7973330391
C          15.0472272164       20.6892807744        0.8136983181
O          15.6683453843       20.1066364337        1.7086913140
N          15.5206985316       21.7882961443        0.2131397383
H          14.9404545792       22.2246020747       -0.4902180176
CH3        16.8092344350       22.4123666736        0.5134337078
HH31       17.6183312994       21.6964702847        0.3540920084
HH32       16.9681209299       23.2751188693       -0.1360569221
HH33       16.8309204360       22.7446965392        1.5531861997
         110
Energy of minimum      5=    -153.0819266     first found at step        0 after                 1993 function calls
HH31        1.7762025042        1.1675484901       -0.1155422084
CH3         1.9328411982        2.1272808176       -0.6057961847
HH32        1.1349597330        2.8140993789       -0.3273689013
HH33        1.9332811332        1.9896493096       -1.6860398429
C           3.2611236413        2.7041715670       -0.1757159618
O           3.9724282133        2.0898998975        0.6176973547
N           3.5933015708        3.8830622556       -0.6980902155
H           2.9362952893        4.3187316455       -1.3300564801
CA          4.8284327936        4.6223969712       -0.4056245861
HA          5.1762578541        4.3548233096        0.5936034720
CB          5.9129753989        4.2172586837       -1.4196949172