         110
Energy of minimum      1=    -154.0383948     first found at step        0 after                23741 function calls
HH31        1.7934881841        0.5748070469        1.3855542586
CH3         1.9411193455        1.4084541442        0.7005660257
HH32        1.1318723601        2.1272229920        0.8203469790
HH33        1.9520402788        1.0411280692       -0.3245302552
C           3.2580468911        2.0841853784        1.0025629373
O           3.9712140914        1.6660905860        1.9132721477
N           3.5784991872        3.1275044452        0.2398200345
H           2.9209071687        3.4066740660       -0.4746572445
CA          4.8014495636        3.9302648500        0.3718581034
HA          5.1442288465        3.8917726691        1.4072796881
CB          5.9013941801        3.3310390303       -0.5241070691
HB2         6.1113198058        2.3131731574       -0.1917334531
HB3         5.5278582019        3.2687664335       -1.5477793796
CG          7.2021724783        4.1162751967       -0.5235448402
CD1         7.4962744977        4.9980632548       -1.5839511826
HD1         6.8120828459        5.0919248428       -2.4187004611
CE1         8.6728443663        5.7720370006       -1.5542934587
HE1         8.9009796197        6.4534943942       -2.3621032495
CZ          9.5622215543        5.6642260533       -0.4640528606
OH         10.6955895821        6.4145505020       -0.4391509255
HH         11.2167658807        6.2398686484        0.3548335279
CE2         9.2722362234        4.7740653296        0.5934629405
HE2         9.9534642752        4.6887756779        1.4290321979
CD2         8.0923470447        4.0039009117        0.5628255468
HD2         7.8675345422        3.3286024922        1.3798723334
C           4.5531477861        5.4077888045        0.0166604512
O           3.7137972053        5.7196467459       -0.8340206953
N           5.3126788977        6.3134132327        0.6400942360
H           5.9887128035        5.9795363977        1.3133663521
CA          5.3958549264        7.7344619368        0.2871918156
HA          5.1899069512        7.8454953051       -0.7788127916
CB          4.3360049700        8.5320685558        1.0667296410
HB2         3.3445208415        8.1712739683        0.7890134146
HB3         4.4666761346        8.3466294362        2.1342602264
CG          4.3956467779       10.0274243969        0.8106067727
CD1         4.9597610801       10.8859037259        1.7752784243
HD1         5.3060948085       10.4884768248        2.7217172388
CE1         5.1017519071       12.2595037398        1.5007627573
HE1         5.5467537395       12.9185417994        2.2332894116
CZ          4.6836596381       12.7794800131        0.2573550149
OH          4.8668498035       14.0988585449       -0.0197012773
HH          4.5025499027       14.3276065094       -0.8850531193
CE2         4.0978350132       11.9232050831       -0.7006771852
HE2         3.7742338031       12.3195868176       -1.6534827702
CD2         3.9550409075       10.5490965464       -0.4222504224
HD2         3.5216369832        9.8904646763       -1.1655414615
C           6.8118603591        8.2831584282        0.5488380203
O           7.4759115301        7.8809582712        1.5091330924
N           7.2638604289        9.2178321035       -0.2910753209
H           6.6586980486        9.5190545348       -1.0429357720
CA          8.5607941585        9.8936223103       -0.1856792434
HA2         8.6384758016       10.3751861914        0.7897578719
HA3         9.3642025129        9.1612477613       -0.2710085887
C           8.7566509412       10.9596130629       -1.2709932469
O           7.9605165977       11.0581429193       -2.2105926781
N           9.8154534299       11.7628640299       -1.1498713588
H          10.4364530403       11.6289702849       -0.3632325566
CA         10.1304992104       12.8572781255       -2.0756811509
HA2        10.3894965747       12.4476433217       -3.0523934377
HA3         9.2473329866       13.4860597548       -2.1968525147
C          11.2891436781       13.7417423926       -1.6019483782
O          12.0574983578       13.3575360952       -0.7149833262
N          11.4013796262       14.9348240688       -2.1902414242
H          10.7199945997       15.1748373965       -2.8966770805
CA         12.3621671516       15.9832454573       -1.8211379757
HA         12.8473502918       15.7073725969       -0.8835999094
CB         13.4498932813       16.0887758482       -2.9002698009
HB2        13.9133205890       15.1091118787       -3.0282579944
HB3        12.9836025029       16.3563619963       -3.8500084981
CG         14.5414243290       17.0930399020       -2.5782601661
CD1        14.5455835109       18.3598479822       -3.1965250015
HD1        13.7769632730       18.6159425393       -3.9159527501
CE1        15.5461706609       19.2994605513       -2.8782151506
HE1        15.5480138237       20.2711802486       -3.3528739267
CZ         16.5469879398       18.9725820175       -1.9370857714
OH         17.5180331892       19.8724581237       -1.6275856013
HH         17.4050452400       20.6962780965       -2.1190558807
CE2        16.5422096405       17.7032762355       -1.3196889499
HE2        17.3122367893       17.4579128003       -0.6011623092
CD2        15.5402895911       16.7660746118       -1.6398716285
HD2        15.5399481915       15.7927611861       -1.1636418084
C          11.6428439133       17.3238688663       -1.5895043086
O          10.6416260668       17.6173117042       -2.2513625104
N          12.1374128099       18.1265942073       -0.6410262125
H          13.0128541097       17.8719022089       -0.2072143696
CA         11.4238924893       19.2791199353       -0.0711874591
HA         10.6491228036       19.6019245766       -0.7683656349
CB         10.7369472812       18.8555166610        1.2426237675
HB2        11.5027265214       18.7145827567        2.0075064313
HB3        10.0922267059       19.6686997644        1.5796359828
CG          9.9082828912       17.5823899453        1.1500347600
CD1         8.5876765281       17.6261353672        0.6592862307
HD1         8.1484737993       18.5737709749        0.3722956952
CE1         7.8415936515       16.4370936796        0.5263157119
HE1         6.8298640988       16.4704882891        0.1458577854
CZ          8.4211982790       15.1981940057        0.8773695344
OH          7.7190547447       14.0440926507        0.7390182089
HH          6.8143710993       14.2045796976        0.4317702570
CE2         9.7399973993       15.1556495500        1.3754786185
HE2        10.1780188967       14.2043812596        1.6435714211
CD2        10.4785639737       16.3458328325        1.5169525935
HD2        11.4932517489       16.3065219795        1.8934337973
C          12.3589292962       20.4767166384        0.1731872306
O          13.5536474391       20.3027486202        0.4337951016
N          11.8110114708       21.6972212746        0.1207301287
H          10.8233960043       21.7586397731       -0.0877317988
CH3        12.5376571858       22.9481361346        0.3413086371
HH31       13.3461323904       23.0460067637       -0.3861492134
HH32       11.8616859896       23.7985290672        0.2333872394
HH33       12.9642115268       22.9622934766        1.3464054955
         110
Energy of minimum      2=    -153.4314634     first found at step        0 after                50493 function calls
HH31        2.5585037344       -1.2825464387       -1.0289066309
CH3         2.6601577650       -0.3511166785       -1.5839527596
HH32        1.6924018127        0.1442735375       -1.6463571326
HH33        3.0255824037       -0.5623582361       -2.5878014310
C           3.6403093838        0.5549280255       -0.8764916140
O           4.1786950936        0.1866298216        0.1662462772
N           3.8699587673        1.7380975601       -1.4424876059
H           3.3683673947        1.9579588953       -2.2915534607
CA          4.7736143556        2.7690033606       -0.9151096579
HA          4.8381800721        2.6667433796        0.1695326903
CB          6.1808270484        2.5606779345       -1.5050071232
HB2         6.5481807778        1.5788650252       -1.2022021043
HB3         6.1104039401        2.5601361588       -2.5942033148
CG          7.1968420244        3.6073135701       -1.0795376354
CD1         7.5231643778        4.6700639389       -1.9470589741
HD1         7.0756158708        4.7247686800       -2.9321676842
CE1         8.4208154751        5.6726068431       -1.5306324300
HE1         8.6713268448        6.4920306741       -2.1899510532
CZ          8.9985417894        5.6139216963       -0.2445622579
OH          9.8636545697        6.5842326270        0.1531391226
HH         10.1918826004        6.4195483277        1.0462621390
CE2         8.6781229823        4.5449909587        0.6211385684
HE2         9.1210418951        4.4974277292        1.6065803639
CD2         7.7767591057        3.5454979692        0.2030833716
HD2         7.5260503296        2.7310049053        0.8723260702
C           4.2582977822        4.1873864206       -1.2207822355
O           3.6116323254        4.4159428114       -2.2479156763
N           4.5800385600        5.1465867068       -0.3477890611
H           5.1235869746        4.8839982306        0.4629953413
CA          4.3846575365        6.5845078475       -0.5606360333
HA          4.4213547116        6.7918728456       -1.6315234640
CB          3.0037801833        7.0068045226       -0.0339576035
HB2         2.2382172719        6.4090999344       -0.5312010162
HB3         2.9472207847        6.7870043796        1.0335614483
CG          2.6839516883        8.4735773716       -0.2600501660
CD1         2.8094229365        9.3987697223        0.7961224537
HD1         3.1183284208        9.0625262227        1.7787262470
CE1         2.5404760407       10.7644005623        0.5767518388
HE1         2.6386022692       11.4732797962        1.3876339622
CZ          2.1439814108       11.2083257744       -0.7037986449
OH          1.8836008512       12.5244643750       -0.9233491529
HH          2.0067086660       13.0473609328       -0.1205248985
CE2         2.0175003437       10.2807983822       -1.7600959608
HE2         1.7133702665       10.6264454355       -2.7386020441
CD2         2.2878627134        8.9161577174       -1.5376913700
HD2         2.1917474563        8.2072473089       -2.3515143671
C           5.5084982727        7.3892278505        0.1169529918
O           5.9575098945        7.0378894323        1.2124541904
N           5.9546208134        8.4742910120       -0.5206962794
H           5.5332637267        8.7228484555       -1.4055342863
CA          7.0231159164        9.3492193443       -0.0271342232
HA2         6.7108187833        9.8059731784        0.9125365534
HA3         7.9182943557        8.7566430213        0.1645256135
C           7.3875056437       10.4674230748       -1.0106933167
O           6.8249698470       10.5588879257       -2.1065767518
N           8.3340833338       11.3237896889       -0.6221687590
H           8.7563397438       11.1926896784        0.2876984578
CA          8.8174261745       12.4549061057       -1.4230987252
HA2         9.2180266087       12.0852003478       -2.3676423452
HA3         7.9848777676       13.1227629361       -1.6469903611
C           9.9119420859       13.2678264095       -0.7210593497
O          10.3032899822       12.9596014693        0.4092063158
N          10.4077361715       14.3100072198       -1.3921916159
H          10.0259736231       14.5102450675       -2.3066250512
CA         11.4484742487       15.2205424464       -0.8952859287
HA         11.4044208620       15.2529717587        0.1948000318
CB         12.8301203275       14.6819370270       -1.3078658396
HB2        12.9583298794       13.6827322718       -0.8885302822
HB3        12.8616926154       14.5852385224       -2.3945728178
CG         13.9960830412       15.5429467332       -0.8543119509
CD1        14.6334012350       16.4095408209       -1.7657205509
HD1        14.3108078429       16.4448877169       -2.7993524009
CE1        15.6850742600       17.2407449496       -1.3327916907
HE1        16.1757658563       17.9096228477       -2.0262528171
CZ         16.1044238252       17.2065778433        0.0142745845
OH         17.1221499950       18.0079549040        0.4268773093
HH         17.3102411331       17.8840489562        1.3660285424
CE2        15.4695914428       16.3341141952        0.9255935403
HE2        15.7910160555       16.3047944079        1.9577862560
CD2        14.4160969987       15.5056835829        0.4900998648
HD2        13.9270938796       14.8408365585        1.1922777729
C          11.2395597335       16.6556256462       -1.4137233164
O          10.7089729366       16.8566405510       -2.5107830851
N          11.6779277218       17.6512462680       -0.6374261148
H          12.1262003925       17.4093615642        0.2357379694
CA         11.7019362161       19.0701510554       -1.0115534837
HA         11.8258078370       19.1485416172       -2.0929929489
CB         10.3646089640       19.7252049625       -0.6276240329
HB2         9.5514449710       19.1650410829       -1.0919689970
HB3        10.2319155687       19.6547178141        0.4533708509
CG         10.2393601496       21.1768585156       -1.0542497853
CD1        10.3885814603       22.2113526595       -0.1083595720
HD1        10.5827846922       21.9733708815        0.9306632974
CE1        10.2909266734       23.5582252402       -0.5108385710
HE1        10.4068405059       24.3508090287        0.2158330924
CZ         10.0429886402       23.8737246583       -1.8647547942
OH          9.9481602044       25.1708238224       -2.2607768336
HH         10.0692355215       25.7763547098       -1.5178983830
CE2         9.8931444438       22.8370345638       -2.8107637650
HE2         9.7025754869       23.0844608438       -3.8461254486
CD2         9.9913134268       21.4914202683       -2.4051462394
HD2         9.8747756283       20.6981178049       -3.1340253408
C          12.8877687715       19.7931598046       -0.3453572464
O          13.2602677937       19.4705417083        0.7875319449
N          13.4721552675       20.7797127218       -1.0366498867
H          13.0914792551       21.0038711003       -1.9458236464
CH3        14.6106847576       21.5673095782       -0.5639909623
HH31       15.4544814214       20.9103910431       -0.3426297766
HH32       14.9130973961       22.2850282754       -1.3287463564
HH33       14.3388610149       22.1113525208        0.3427214552
         110
Energy of minimum      3=    -153.3189191     first found at step        0 after                46095 function calls
HH31        1.7807830873       -0.3269170892       -1.5111732375
CH3         1.7998544269        0.6993176464       -1.8751099746
HH32        0.9120482710        1.2262044111       -1.5286309990
HH33        1.8211257342        0.7002175361       -2.9638784722
C           3.0320494335        1.3989550404       -1.3513555316
O           3.8226128723        0.7961707140       -0.6271564694
N           3.1937352219        2.6691890456       -1.7165187531
H           2.4822755066        3.0838991140       -2.3019118151
CA          4.3110076648        3.5321772607       -1.3110044975
HA          4.6911402150        3.1945382895       -0.3453054922
CB          5.4456218577        3.4135319995       -2.3455123720
HB2         5.7897552675        2.3784720086       -2.3741296153
HB3         5.0484901220        3.6519508226       -3.3338193129
CG          6.6399439657        4.3106620655       -2.0671267533
CD1         6.7899795713        5.5259235133       -2.7665159706
HD1         6.0724110486        5.8072290885       -3.5278915158
CE1         7.8649463071        6.3857680723       -2.4675302740
HE1         7.9824753149        7.3207609427       -2.9975224415
CZ          8.7967278598        6.0311795654       -1.4689098910
OH          9.8319858809        6.8646946794       -1.1832785456
HH         10.3977156239        6.4998790213       -0.4909018737
CE2         8.6511728175        4.8100651021       -0.7743475382
HE2         9.3651239213        4.5358232371       -0.0097563977
CD2         7.5724904329        3.9536636482       -1.0730684940
HD2         7.4582416570        3.0213558579       -0.5328012590
C           3.8685155303        4.9983889690       -1.1521441158
O           2.9663756769        5.4648033326       -1.8550122249
N           4.5320290815        5.7343328941       -0.2555746472
H           5.2675949392        5.2850234433        0.2724792931
CA          4.4229186977        7.1894934856       -0.1082611047
HA          4.1537117208        7.6234990079       -1.0727888248
CB          3.3145742558        7.5300166588        0.9008249588
HB2         2.3795521971        7.0797232708        0.5638459526
HB3         3.5623311938        7.0845288766        1.8658449382
CG          3.0873669551        9.0201700573        1.0815368429
CD1         3.6136777430        9.6874755178        2.2060556146
HD1         4.1678219586        9.1356912205        2.9559233508
CE1         3.4268911886       11.0759078175        2.3546039219
HE1         3.8298623731       11.5937466257        3.2141514606
CZ          2.7122239789       11.8020166211        1.3779289669
OH          2.5357279583       13.1419727417        1.5248025293
HH          2.0314406692       13.5141786378        0.7897643030
CE2         2.1837933697       11.1327106657        0.2523018687
HE2         1.6355004323       11.6869742307       -0.4972979626
CD2         2.3729194841        9.7440432832        0.1062994643
HD2         1.9685479052        9.2327084521       -0.7593003412
C           5.7721435080        7.7924819588        0.3228064530
O           6.4971075629        7.1959740700        1.1251640992
N           6.1057079626        8.9779296009       -0.1933783088
H           5.4609236541        9.4272103349       -0.8295044789
CA          7.3523673712        9.6924656432        0.0999073445
HA2         7.3886376795        9.9342926863        1.1626189004
HA3         8.2024435816        9.0496473297       -0.1311457612
C           7.5017736390       10.9934616626       -0.6973715923
O           6.6437915927       11.3401142073       -1.5155996761
N           8.5960379120       11.7196641534       -0.4617069919
H           9.2608384566       11.3791137071        0.2205061241
CA          8.9146595076       12.9899981729       -1.1244680739
HA2         8.9741057643       12.8317762499       -2.2018508794
HA3         8.1180892972       13.7094291452       -0.9316079170
C          10.2400835007       13.6008682732       -0.6535723739
O          10.9267067670       13.0387193346        0.2056027052
N          10.6011718945       14.7559160691       -1.2173721349
H           9.9794213271       15.1642198838       -1.9020176346
CA         11.8220557809       15.5092541775       -0.8992641550
HA         12.1154976590       15.2958669930        0.1301118467
CB         12.9562418999       15.0483929893       -1.8313987382
HB2        13.1009491869       13.9742277110       -1.7050538154
HB3        12.6531556766       15.2158139610       -2.8664706128
CG         14.2866376210       15.7384416191       -1.5868410010
CD1        14.7187017341       16.7704230143       -2.4449229011
HD1        14.1107009856       17.0619829425       -3.2929915281
CE1        15.9395581443       17.4300403714       -2.2006432188
HE1        16.2698409676       18.2209935367       -2.8600487014
CZ         16.7333125573       17.0568013154       -1.0939581149
OH         17.9165904857       17.6827807866       -0.8564167383
HH         18.0974353051       18.3604412229       -1.5202160558
CE2        16.3003500642       16.0224764085       -0.2365722619
HE2        16.9134660364       15.7397922903        0.6081164191
CD2        15.0784771655       15.3656880327       -0.4827894131
HD2        14.7490593608       14.5728681537        0.1782579722
C          11.5941562578       17.0277980206       -1.0153240918
O          10.7778757590       17.4799344555       -1.8245319606
N          12.3257091130       17.8157165695       -0.2214902853
H          12.9965133051       17.3778716701        0.3951286734
CA         12.3280232330       19.2833478574       -0.2545820700
HA         12.1249363779       19.6142638260       -1.2745054920
CB         11.2127928204       19.8169404439        0.6607211219
HB2        10.2641906676       19.3707998208        0.3578524565
HB3        11.4102553972       19.4958063071        1.6849395840
CG         11.0518361458       21.3263687848        0.6309411726
CD1        11.5329995248       22.1140112331        1.6964437461
HD1        12.0104482909       21.6431956344        2.5474909872
CE1        11.3998375171       23.5162489933        1.6567206749
HE1        11.7706372065       24.1192578120        2.4743776549
CZ         10.7829566815       24.1351730720        0.5474534936
OH         10.6515034232       25.4875427556        0.5016402486
HH         11.0210665638       25.9049397488        1.2905622676
CE2        10.3009144263       23.3454181835       -0.5183912875
HE2         9.8285022482       23.8246933629       -1.3649338741
CD2        10.4355417919       21.9436797270       -0.4756367659
HD2        10.0632248210       21.3404792397       -1.2952192927
C          13.7017555950       19.8439084887        0.1598196547
O          14.3926358926       19.2530000655        0.9962471148
N          14.0934478398       20.9910136027       -0.4089840983
H          13.4595041579       21.4288540921       -1.0634498763
CH3        15.3569462977       21.6727641301       -0.1282592512
HH31       16.1968089099       21.0043073593       -0.3279972716
HH32       15.4528708266       22.5584999891       -0.7589390359
HH33       15.3913561494       21.9800287416        0.9188519486
         110
Energy of minimum      4=    -153.3086854     first found at step        0 after                 3227 function calls
HH31        4.7256852253       -2.2094182442       -0.8796436255
CH3         4.9564529958       -1.3431778730       -1.4979841457
HH32        4.0550890625       -1.0092766696       -2.0097559544
HH33        5.7137417559       -1.6108608966       -2.2333274799
C           5.4796274020       -0.2250522387       -0.6272378381
O           5.5827384598       -0.3862079006        0.5877526306
N           5.8081346331        0.9063638241       -1.2476901818
H           5.6740168299        0.9495025348       -2.2481886062
CA          6.3228638499        2.1149492027       -0.5905274287
HA          5.9532489732        2.1486558910        0.4357881349
CB          7.8611024147        2.0541364012       -0.5486893127
HB2         8.1637125638        1.1799634863        0.0299686227
HB3         8.2366926788        1.9180590750       -1.5644269615
CG          8.5177965977        3.2833716431        0.0566956928
CD1         9.0670930535        4.2764613351       -0.7803014189
HD1         9.0522849472        4.1499152504       -1.8561722557
CE1         9.6237564120        5.4435771764       -0.2215106873
HE1        10.0424229148        6.2102239689       -0.8586004418
CZ          9.6359504741        5.6203032881        1.1784204209
OH         10.1735235205        6.7487315792        1.7129804044
HH         10.1269790571        6.7388046329        2.6774796189
CE2         9.0933316736        4.6218231552        2.0170629784
HE2         9.1031328496        4.7547256077        3.0902712674
CD2         8.5336647707        3.4569573062        1.4548581078
HD2         8.1103579837        2.6962622063        2.1000665065
C           5.8465093409        3.3952730618       -1.3009176982
O           5.6514274163        3.4047311042       -2.5204549567
N           5.6986254977        4.4856582384       -0.5427030149
H           5.8903068337        4.4024704133        0.4462899904
CA          5.4742435507        5.8438886532       -1.0486250924
HA          5.9208288919        5.9301931041       -2.0407237812
CB          3.9657879957        6.1115242760       -1.1730453744
HB2         3.5247086586        5.3525499219       -1.8211157569
HB3         3.5036264515        6.0096249707       -0.1896170534
CG          3.6308197698        7.4778801728       -1.7437459361
CD1         3.2334803987        8.5263842013       -0.8893541280
HD1         3.1489986910        8.3553071120        0.1772236158
CE1         2.9514374881        9.8018381058       -1.4176270968
HE1         2.6481464340       10.6056862301       -0.7607320338
CZ          3.0665433634       10.0313255720       -2.8062137626
OH          2.7969299156       11.2594458927       -3.3231761373
HH          2.5367604833       11.8834906573       -2.6332610710
CE2         3.4632279947        8.9803625047       -3.6607233324
HE2         3.5495383636        9.1618619244       -4.7232906835
CD2         3.7452440504        7.7064415514       -3.1293135780
HD2         4.0515581731        6.9025279686       -3.7880961140
C           6.1495793733        6.8806697749       -0.1328056479
O           6.1484460349        6.7287786833        1.0927964007
N           6.7131029060        7.9400622824       -0.7185636317
H           6.6638434845        8.0193395945       -1.7253153520
CA          7.4058586808        9.0163743781       -0.0027246053
HA2         6.7001895827        9.5257429871        0.6543216351
HA3         8.1979292655        8.5909728379        0.6144318988
C           8.0315505291       10.0563614382       -0.9394654612
O           7.9535248370        9.9359129602       -2.1663222774
N           8.6573480744       11.0841361994       -0.3629427265
H           8.6864399413       11.1232452974        0.6474888265
CA          9.3163873536       12.1756360724       -1.0901456263
HA2        10.0964933733       11.7644868971       -1.7317969525
HA3         8.5874253970       12.6805694113       -1.7249323382
C           9.9541776469       13.2189919696       -0.1647869662
O           9.8824499804       13.1047922855        1.0629992650
N          10.5802930027       14.2399625160       -0.7546930789
H          10.5835884226       14.2742653725       -1.7650593545
CA         11.2429903146       15.3476794157       -0.0525057403
HA         10.7609204510       15.4964729998        0.9153400713
CB         12.7168690538       14.9796920538        0.1922727721
HB2        12.7573443073       14.0546808903        0.7697244366
HB3        13.1966345113       14.7841863437       -0.7683872647
CG         13.5110517288       16.0387273128        0.9363473804
CD1        13.3460323310       16.1921706559        2.3270698030
HD1        12.6699031132       15.5411133646        2.8683978954
CE1        14.0602766807       17.1918197340        3.0166523171
HE1        13.9393180311       17.3134840506        4.0843072965
CZ         14.9412885829       18.0433607351        2.3158733425
OH         15.6337782250       19.0018617071        2.9868104505
HH         16.2052313027       19.5057027514        2.3933934781
CE2        15.1066906067       17.8891694922        0.9219679267
HE2        15.7823752692       18.5391505602        0.3830019808
CD2        14.3919247745       16.8876728855        0.2354024252
HD2        14.5187641161       16.7747250354       -0.8346664816
C          11.1260981625       16.6654573780       -0.8406581931
O          11.0708375352       16.6560526989       -2.0745195962
N          11.1060532884       17.7987336085       -0.1325330793
H          11.1856762298       17.7323474775        0.8730306057
CA         11.1022330562       19.1523467788       -0.7006520230
HA         11.6417455408       19.1391352916       -1.6492013118
CB          9.6523233569       19.5885670885       -0.9721518179
HB2         9.1726250404       18.8425293148       -1.6077097852
HB3         9.1055830578       19.6104808428       -0.0278337002
CG          9.5259317480       20.9382550746       -1.6559170642
CD1         9.1376668817       22.0753445110       -0.9187108824
HD1         8.9167415771       21.9879394243        0.1383879607
CE1         9.0404425140       23.3304064845       -1.5519153499
HE1         8.7436628230       24.2020972991       -0.9846835282
CZ          9.3322803951       23.4506588671       -2.9283066293
OH          9.2414066483       24.6583217220       -3.5460240713
HH          8.9668349959       25.3499832617       -2.9300616728
CE2         9.7201745419       22.3112856755       -3.6655103306
HE2         9.9415625272       22.4090590556       -4.7195219605
CD2         9.8163996606       21.0578690750       -3.0294988512
HD2        10.1133888351       20.1850951665       -3.5989283621
C          11.8150214501       20.1470697649        0.2350585437
O          11.7624671223       20.0014012428        1.4606679463
N          12.4672435141       21.1674321143       -0.3361483123
H          12.4404883398       21.2337493559       -1.3445137007
CH3        13.1880540917       22.2103024526        0.3938325967
HH31       13.6708878846       22.8931038459       -0.3076946335
HH32       12.4943393351       22.7777413019        1.0173791210
HH33       13.9516290424       21.7621177145        1.0327243746
         110
Energy of minimum      5=    -152.9984868     first found at step      121 after                82723 function calls
HH31        3.9553860979       -1.5677641006       -1.0967251009
CH3         5.0132896697       -1.3093804346       -1.1046781383
HH32        5.3816549607       -1.3106241093       -2.1294528418
HH33        5.5712084099       -2.0368303339       -0.5169647237
C           5.2024057604        0.0654501068       -0.5078756805
O           4.2308825287        0.7046901988       -0.1071396398
N           6.4514834481        0.5222376810       -0.4454305718
H           7.1862524001       -0.0660194109       -0.8089937613
CA          6.8211916637        1.8422727505        0.0811309535
HA          6.2980802605        1.9901148887        1.0276099436
CB          8.3314990343        1.8699995263        0.3734291149