         110
Energy of minimum      1=    -154.3910103     first found at step      137 after               100188 function calls
HH31       -0.8834819632        6.7185405294       -2.0623091170
CH3        -0.6358283982        5.8538953719       -1.4483780670
HH32       -1.0638972903        4.9571470194       -1.8938683780
HH33       -1.0378525354        5.9910046633       -0.4456010930
C           0.8659126048        5.7071925254       -1.3752726052
O           1.4396221911        5.7536372349       -0.2881948993
N           1.5048832085        5.5280774624       -2.5295615256
H           0.9542476563        5.5150358615       -3.3749796936
CA          2.9616845289        5.3897805746       -2.6526753083
HA          3.3013464862        4.6804191643       -1.8958716665
CB          3.3020551033        4.7994382499       -4.0315456331
HB2         2.8112737578        3.8297725020       -4.1306791654
HB3         2.8960629616        5.4525044400       -4.8061082182
CG          4.7900582773        4.6140495728       -4.2742701878
CD1         5.4646197147        3.5158495449       -3.7048166977
HD1         4.9158462344        2.7853623033       -3.1222632194
CE1         6.8543354524        3.3677441020       -3.8858112432
HE1         7.3713025659        2.5253306825       -3.4469211289
CZ          7.5744847633        4.3235906573       -4.6357765937
OH          8.9156741938        4.1888524154       -4.8125966814
HH          9.2514713662        3.3969361271       -4.3734707352
CE2         6.8972708349        5.4208192178       -5.2093180654
HE2         7.4534081765        6.1484567354       -5.7840830378
CD2         5.5075580581        5.5643275966       -5.0294572790
HD2         4.9939226508        6.4132407010       -5.4645244933
C           3.7064461472        6.7182971472       -2.4134333361
O           3.2183128651        7.7942626800       -2.7737159352
N           4.9143799406        6.6364353438       -1.8470477295
H           5.2615920796        5.7190508228       -1.6033441385
CA          5.8626149919        7.7476177016       -1.7088795726
HA          5.7085301994        8.4454409883       -2.5336773256
CB          5.6023397669        8.4931423750       -0.3880369564
HB2         5.7955321440        7.8174158231        0.4468949875
HB3         4.5490229853        8.7743247911       -0.3426766185
CG          6.4322238535        9.7541563887       -0.2191398927
CD1         6.0892561777       10.9168151520       -0.9373157559
HD1         5.2206786857       10.9161347362       -1.5852574746
CE1         6.8737655762       12.0809492408       -0.8181294278
HE1         6.6073834274       12.9716650789       -1.3706560991
CZ          8.0100638562       12.0837729852        0.0204552176
OH          8.7670615661       13.2068625972        0.1384696939
HH          8.4091476397       13.9218782950       -0.4003570586
CE2         8.3516453199       10.9198523710        0.7418339355
HE2         9.2240691360       10.9263771013        1.3801856008
CD2         7.5629200864        9.7579641827        0.6230712694
HD2         7.8341535153        8.8654673516        1.1737582583
C           7.3160559471        7.2430731522       -1.7855769662
O           7.6041114482        6.0972018533       -1.4260667437
N           8.2373325406        8.1036586294       -2.2254180991
H           7.9409146108        9.0410316196       -2.4627996014
CA          9.6761811617        7.8305895132       -2.3018403368
HA2         9.9817660137        7.2427380495       -1.4353003790
HA3         9.8943632541        7.2526528983       -3.2001569353
C          10.5103782318        9.1160108940       -2.3333408314
O          10.0021127635       10.1906871634       -2.6675515998
N          11.7924371474        9.0155452387       -1.9731796561
H          12.1441513385        8.1044230494       -1.7154372600
CA         12.6804809448       10.1705522957       -1.7867962103
HA2        13.7116672940        9.8290752482       -1.6955198967
HA3        12.6192114768       10.8168613848       -2.6634488806
C          12.3348478656       10.9947717834       -0.5377195693
O          11.8289773387       10.4585131112        0.4526972394
N          12.6191164032       12.2987177424       -0.5760541876
H          13.0319858727       12.6718423502       -1.4198325768
CA         12.3107047065       13.2582373046        0.4927612670
HA         11.4128934145       12.9286762217        1.0180679565
CB         13.4752104191       13.2919028331        1.4984961235
HB2        14.3906511611       13.5649622266        0.9707170371
HB3        13.6198161078       12.2897933746        1.9050035194
CG         13.2665671962       14.2500271946        2.6579750126
CD1        12.3835996015       13.9079271150        3.7012890219
HD1        11.8793497243       12.9489070734        3.6916707810
CE1        12.1507833320       14.8123968838        4.7564092745
HE1        11.4725224887       14.5489456863        5.5564703577
CZ         12.8006030890       16.0663133852        4.7674539215
OH         12.5819398621       16.9436757577        5.7826425100
HH         11.9599924049       16.5868157388        6.4295507356
CE2        13.6871997272       16.4066050971        3.7235323168
HE2        14.1827529481       17.3674579658        3.7380691979
CD2        13.9198110017       15.4993151603        2.6713976730
HD2        14.5954398580       15.7687625379        1.8685402982
C          12.0335340120       14.6642077268       -0.0706591040
O          12.5859139174       15.0457044224       -1.1075264772
N          11.2071532482       15.4465334231        0.6297311291
H          10.8057663370       15.0696059898        1.4774001980
CA         10.9509410460       16.8661228719        0.3620703924
HA         11.8416760939       17.3063558531       -0.0892596748
CB          9.7858683271       17.0015903220       -0.6322442516
HB2         8.8875977596       16.5699055487       -0.1876583878
HB3        10.0172939109       16.4224710266       -1.5276296229
CG          9.4966618626       18.4299886984       -1.0577799267
CD1        10.3427651318       19.0699352059       -1.9851478127
HD1        11.1884546753       18.5379111320       -2.4045670954
CE1        10.0907007591       20.4015990260       -2.3698054942
HE1        10.7364859873       20.8977248392       -3.0813648723
CZ          8.9896779882       21.0982794034       -1.8271558316
OH          8.7506379135       22.3834367928       -2.2006883734
HH          7.9701730167       22.7404430292       -1.7572903256
CE2         8.1414558782       20.4565607715       -0.8982866859
HE2         7.2975682598       20.9885094904       -0.4804952330
CD2         8.3962879124       19.1245754634       -0.5155924689
HD2         7.7454058583       18.6370565294        0.2003355392
C          10.6579189841       17.6246346279        1.6702328810
O          10.0391100436       17.0744949287        2.5871261702
N          11.0861689717       18.8904111832        1.7546404684
H          11.5599242777       19.2794278308        0.9509416176
CH3        10.9052492909       19.7551034593        2.9206335128
HH31       11.3730620519       20.7253034053        2.7437985621
HH32       11.3623909747       19.2976248200        3.8005850011
HH33        9.8412599642       19.9062114270        3.1131495170
         110
Energy of minimum      2=    -153.7695266     first found at step        0 after                39283 function calls
HH31       -0.6644118315        2.9555964492       -0.0206122466
CH3        -0.1506395886        3.6864469318       -0.6434012344
HH32       -0.7364129332        4.6033017931       -0.6892484776
HH33       -0.0241493393        3.2854984071       -1.6479452892
C           1.2062448153        3.9897281249       -0.0526485332
O           1.5661302058        3.4332654779        0.9835041906
N           1.9563905226        4.8714879067       -0.7105136336
H           1.5684112214        5.2881826667       -1.5451900531
CA          3.2961376364        5.3157810205       -0.3037667204
HA          3.3870815947        5.2282718660        0.7802554305
CB          4.3507779861        4.4020953239       -0.9528489713
HB2         4.1746392640        3.3753661524       -0.6280946537
HB3         4.2208220189        4.4271514057       -2.0362524764
CG          5.7865755136        4.7686164230       -0.6194178732
CD1         6.5761262649        5.4651732145       -1.5573461195
HD1         6.1672111944        5.7219136245       -2.5272931556
CE1         7.8969779161        5.8354521995       -1.2357859889
HE1         8.5012449945        6.3688244297       -1.9568299314
CZ          8.4324606084        5.5082165978        0.0291661355
OH          9.7088053003        5.8550973100        0.3437961108
HH         10.1419902846        6.3118849654       -0.3883703454
CE2         7.6416007486        4.8098543191        0.9668517833
HE2         8.0578246039        4.5607421083        1.9332835167
CD2         6.3207872487        4.4417648482        0.6426048937
HD2         5.7164321987        3.9071865348        1.3657921436
C           3.5410190926        6.7894568955       -0.6764055876
O           3.0136350994        7.2810489249       -1.6792901576
N           4.3606270524        7.4870113406        0.1158308638
H           4.7758655160        7.0111765325        0.9051441152
CA          4.8272522660        8.8539383844       -0.1422616521
HA          4.8854697680        9.0096908650       -1.2209023760
CB          3.8194699182        9.8629439759        0.4373200523
HB2         2.8576400758        9.7293804671       -0.0600429117
HB3         3.6733164198        9.6476709566        1.4972436913
CG          4.2455635633       11.3117407129        0.2794276534
CD1         4.2138800195       11.9213752233       -0.9908366022
HD1         3.8345728778       11.3737875352       -1.8454708176
CE1         4.6945908101       13.2357147499       -1.1570457622
HE1         4.6839517298       13.6969674799       -2.1352059573
CZ          5.2087544072       13.9439569242       -0.0487338393
OH          5.7129504206       15.1977523513       -0.2070564583
HH          5.6100001322       15.5024889003       -1.1183316967
CE2         5.2175379708       13.3403094142        1.2267481974
HE2         5.6077108128       13.8866793555        2.0741787351
CD2         4.7390207543       12.0262255994        1.3893038313
HD2         4.7708627142       11.5599701372        2.3666624683
C           6.2365578828        9.0803182107        0.4391138033
O           6.5911396242        8.5098769841        1.4751624313
N           7.0305719475        9.9332789286       -0.2133975874
H           6.6688288758       10.3820328552       -1.0442773638
CA          8.3721768704       10.3405674818        0.2162581059
HA2         8.3157898713       10.7667201275        1.2186027320
HA3         9.0274368401        9.4698238410        0.2513030971
C           8.9963433312       11.3829400767       -0.7203694432
O           8.4623830768       11.6627309652       -1.7987026115
N          10.1293385325       11.9617972087       -0.3176043245
H          10.5233935400       11.6871160117        0.5721737939
CA         10.8381865014       13.0005352719       -1.0744464750
HA2        11.2151685291       12.5805316773       -2.0073899199
HA3        10.1383368873       13.7996201332       -1.3228017993
C          12.0176455246       13.6146075835       -0.3121628579
O          12.4788051844       13.0640836124        0.6923046754
N          12.4947567755       14.7661646500       -0.7899441211
H          12.0485640444       15.1545669595       -1.6091461635
CA         13.5430206339       15.5832744457       -0.1639731256
HA         13.7223445962       15.2171338978        0.8481067848
CB         14.8508747176       15.4396626048       -0.9563114809
HB2        15.1105230364       14.3814094064       -1.0159723580
HB3        14.6897279915       15.7946436602       -1.9756502853
CG         16.0250215998       16.1836869124       -0.3468512210
CD1        16.6780525284       15.6562114153        0.7847560086
HD1        16.3548679237       14.7120724401        1.2070029290
CE1        17.7532569527       16.3544021980        1.3688403893
HE1        18.2592787761       15.9542443733        2.2367369347
CZ         18.1780290721       17.5846887784        0.8226746558
OH         19.2184709226       18.2531241698        1.3876235130
HH         19.4056699106       19.0761018402        0.9178826350
CE2        17.5237983301       18.1124561466       -0.3120728510
HE2        17.8477211296       19.0546994464       -0.7325429688
CD2        16.4488480182       17.4116704678       -0.8940960819
HD2        15.9466957605       17.8219982386       -1.7620882816
C          13.0928209476       17.0504624549       -0.0495975445
O          12.3564123313       17.5458087538       -0.9092602185
N          13.5143961476       17.7378576608        1.0173648793
H          14.1928434893       17.3057194463        1.6275937990
CA         12.9417673855       19.0177962589        1.4604115227
HA         12.4276845826       19.4899305163        0.6217686281
CB         11.9029875208       18.7551585647        2.5693943040
HB2        12.4307158041       18.4755993637        3.4829962659
HB3        11.3693435185       19.6837300064        2.7778850915
CG         10.8864366701       17.6687889965        2.2489212645
CD1        11.1026506434       16.3507489338        2.7015994381
HD1        11.9720703606       16.1196977916        3.3046247331
CE1        10.2026092416       15.3258549372        2.3531470901
HE1        10.3719797898       14.3115788914        2.6867400477
CZ          9.0738886744       15.6172772270        1.5593389383
OH          8.2160391864       14.6200045628        1.2223444585
HH          7.4600087960       14.9475787238        0.7123769354
CE2         8.8452171002       16.9397624248        1.1202714968
HE2         7.9791523392       17.1640188766        0.5127465775
CD2         9.7540984431       17.9620452382        1.4624302893
HD2         9.5882445517       18.9723222080        1.1087451959
C          14.0211568799       19.9966217985        1.9554417019
O          15.0656830999       19.5800735729        2.4662900749
N          13.7587460695       21.3039278910        1.8342406609
H          12.8769665204       21.5677063231        1.4153111653
CH3        14.6556063841       22.3781171033        2.2622848602
HH31       14.8388039494       22.3085275561        3.3365127628
HH32       14.2084120270       23.3496195740        2.0433028107
HH33       15.6096162244       22.3026626591        1.7363777925
         110
Energy of minimum      3=    -153.3493447     first found at step        0 after                53932 function calls
HH31       -0.7346459020        4.5048039041        0.9644253618
CH3        -0.3249035952        5.3701181400        0.4454716763
HH32       -0.4242149769        6.2537426723        1.0741216486
HH33       -0.8645060018        5.5255172111       -0.4875605814
C           1.1362684241        5.1337242030        0.1434687033
O           1.6742198202        4.0816238323        0.4847701710
N           1.7761910717        6.1115152027       -0.4948200000
H           1.2533280630        6.9460817286       -0.7205556201
CA          3.1956629864        6.0909079638       -0.8720456726
HA          3.7407576592        5.4508107682       -0.1761967393
CB          3.3356197062        5.4976230762       -2.2856472143
HB2         2.9379675778        4.4815011636       -2.2823007887
HB3         2.7264435702        6.0832318872       -2.9764875567
CG          4.7626071895        5.4526607450       -2.8042731319
CD1         5.2184074898        6.4342490953       -3.7080821115
HD1         4.5439293052        7.2065061226       -4.0579947132
CE1         6.5560277301        6.4217902806       -4.1495246189
HE1         6.9122431419        7.1739369103       -4.8398013486
CZ          7.4426979742        5.4248094226       -3.6897464283
OH          8.7323734249        5.4158925608       -4.1197485100
HH          9.2278645780        4.6824861503       -3.7333191946
CE2         6.9839070018        4.4373365160       -2.7902031439
HE2         7.6613760282        3.6713554845       -2.4382828664
CD2         5.6459811611        4.4543607332       -2.3479003063
HD2         5.2981295263        3.6999001136       -1.6522511860
C           3.8212822938        7.4961859050       -0.8028297714
O           3.1427461492        8.5000234356       -1.0425012099
N           5.1225514944        7.5655341255       -0.5061112335
H           5.6189063222        6.6992613370       -0.3472511905
CA          5.9414699696        8.7816231356       -0.5672921190
HA          5.5414575882        9.4356742181       -1.3440274402
CB          5.8700448033        9.5258657440        0.7778426634
HB2         4.8225675317        9.6856062344        1.0383515534
HB3         6.3073585618        8.8982834643        1.5562693861
CG          6.5631578597       10.8775074308        0.7707394176
CD1         5.9452184561       11.9755717994        0.1401824993
HD1         4.9674638922       11.8597972726       -0.3124321218
CE1         6.5957302440       13.2244092634        0.0934267934
HE1         6.1183872283       14.0652768711       -0.3910341324
CZ          7.8729549770       13.3774378349        0.6762664007
OH          8.5014194006       14.5822556770        0.6342409570
HH          7.9589932690       15.2386890313        0.1819762584
CE2         8.4903953833       12.2779448038        1.3101249311
HE2         9.4694046982       12.3996039765        1.7522620258
CD2         7.8354501830       11.0310110883        1.3585288097
HD2         8.3174050650       10.1889656314        1.8402650928
C           7.3983587375        8.4461648082       -0.9389138055
O           7.8871948295        7.3516345232       -0.6420754473
N           8.1025237704        9.3952498628       -1.5603623385
H           7.6548599553       10.2852470266       -1.7347230039
CA          9.5189047429        9.2900698856       -1.9257965841
HA2        10.0599028518        8.7623823523       -1.1392133305
HA3         9.6197223479        8.7207286249       -2.8500624371
C          10.1707079781       10.6630743710       -2.1241224025
O           9.4810744505       11.6637592479       -2.3429186392
N          11.5020356395       10.7205167108       -2.0365586999
H          12.0045917735        9.8623285831       -1.8597557816
CA         12.2662229737       11.9747990772       -2.0346409744
HA2        13.3258391668       11.7583272538       -2.1713446922
HA3        11.9419174251       12.5952696418       -2.8712355030
C          12.1025468976       12.7720600191       -0.7320995595
O          11.9058391596       12.1939380604        0.3410640216
N          12.1988607373       14.1004148915       -0.8211784939
H          12.3494417029       14.5083322037       -1.7333329199
CA         12.0202677201       15.0372947220        0.2975435452
HA         11.3200578862       14.5995705188        1.0110376997
CB         13.3629368095       15.2495681623        1.0238221433
HB2        13.1781022090       15.8214027383        1.9343743157
HB3        13.7477700270       14.2791454360        1.3412044861
CG         14.4376370961       15.9608049041        0.2160674094
CD1        14.5817349256       17.3605930835        0.3079442756
HD1        13.9283268965       17.9324681565        0.9552671817
CE1        15.5758609212       18.0221160725       -0.4401460762
HE1        15.6830166657       19.0960197290       -0.3695722146
CZ         16.4344658703       17.2820048695       -1.2821651183
OH         17.3961153152       17.9130035119       -2.0070590735
HH         17.3835273984       18.8669297041       -1.8553426267
CE2        16.2954493438       15.8802199290       -1.3682566726
HE2        16.9581695933       15.3179503748       -2.0117566266
CD2        15.3003967468       15.2221450966       -0.6187799531
HD2        15.1996374393       14.1458787654       -0.6851601435
C          11.4155513971       16.3759160885       -0.1679833053
O          11.4005480224       16.6826132959       -1.3649450114
N          10.9295380889       17.1830211518        0.7801952472
H          10.9805518702       16.8740860915        1.7411162268
CA         10.3732066987       18.5232545672        0.5494922947
HA         10.8199677819       18.9420336730       -0.3538171202
CB          8.8550876433       18.4072242409        0.3280041724
HB2         8.6719527529       17.6938815068       -0.4770944721
HB3         8.3955760467       18.0035113323        1.2319052322
CG          8.1722096109       19.7119770601       -0.0420658534
CD1         8.3471500813       20.2534780497       -1.3312772806
HD1         8.9537339777       19.7299185631       -2.0608632709
CE1         7.7335828347       21.4741149042       -1.6763099381
HE1         7.8684982185       21.8879835245       -2.6664279815
CZ          6.9402338007       22.1574188864       -0.7287246654
OH          6.3453612938       23.3358153053       -1.0539726140
HH          6.5453948389       23.5930820261       -1.9633590480
CE2         6.7647436634       21.6137866146        0.5618166071
HE2         6.1568132344       22.1416504750        1.2837311754
CD2         7.3797137330       20.3932425629        0.9038335314
HD2         7.2445687589       19.9828294666        1.8973324850
C          10.7044314091       19.4750674695        1.7155940205
O          10.9137309487       19.0297245214        2.8491067383
N          10.7531285662       20.7854887247        1.4453071117
H          10.5426508699       21.0750082138        0.4996853680
CH3        11.0472910749       21.8306722313        2.4257636720
HH31       10.3014003659       21.8167950570        3.2230113350
HH32       11.0307226784       22.8105268594        1.9449929292
HH33       12.0345967186       21.6685520255        2.8629373685
         110
Energy of minimum      4=    -153.3083418     first found at step        0 after                44439 function calls
HH31       -0.9322349733        2.9647855929       -0.2692010509
CH3        -0.3802863233        3.6170670523       -0.9443690865
HH32       -0.8832331526        4.5804331075       -1.0138311434
HH33       -0.3298799316        3.1614636785       -1.9321710555
C           1.0205305487        3.8218756663       -0.4172358688
O           1.3699512952        3.2821853907        0.6312944694
N           1.8198169507        4.6011727861       -1.1430774039
H           1.4378588887        5.0136343715       -1.9826217692
CA          3.2088312803        4.9398607766       -0.8057547375
HA          3.3342289271        4.8928229031        0.2773372191
CB          4.1510417268        3.9060240904       -1.4470873667
HB2         3.8873972795        2.9134144955       -1.0784222052
HB3         3.9915210517        3.9045729859       -2.5268185426
CG          5.6244663627        4.1428153063       -1.1652396022
CD1         6.4488835956        4.7290756922       -2.1474877063
HD1         6.0374869139        4.9942639963       -3.1141036230
CE1         7.8086931098        4.9776052433       -1.8747784644
HE1         8.4397346161        5.4266879476       -2.6295304961
CZ          8.3482768971        4.6382976393       -0.6146974698
OH          9.6613321834        4.8676192320       -0.3468434281
HH         10.1131196760        5.2612424119       -1.1041348580
CE2         7.5223931205        4.0498760283        0.3671786491
HE2         7.9417800186        3.7906927856        1.3295881296
CD2         6.1627052589        3.8038895176        0.0918733192
HD2         5.5316057662        3.3535609290        0.8488028508
C           3.5678316553        6.3674924312       -1.2571177485
O           3.0432669309        6.8601914386       -2.2609731859
N           4.4773920411        7.0238662261       -0.5304434490
H           4.8871301715        6.5467980106        0.2610829399
CA          5.0399557471        8.3376926808       -0.8642985415
HA          5.0665516845        8.4448465952       -1.9500618166
CB          4.1407226365        9.4461884515       -0.2879020409
HB2         3.1276917494        9.3155923596       -0.6715644179
HB3         4.0955863992        9.3385458804        0.7972163323
CG          4.5998219660       10.8520699275       -0.6336069072
CD1         4.4262918816       11.3412988570       -1.9433370961
HD1         3.9335788677       10.7291335848       -2.6894900132
CE1         4.8980289536       12.6229258370       -2.2885400767
HE1         4.7661337285       12.9952439940       -3.2953439640
CZ          5.5470975442       13.4206531208       -1.3209310931
OH          6.0072384631       14.6557765053       -1.6542619737
HH          5.8265425749       14.8457935222       -2.5843749200
CE2         5.7154650875       12.9329004186       -0.0073021447
HE2         6.2120521229       13.5478600069        0.7302402333
CD2         5.2421507824       11.6505235589        0.3349365591
HD2         5.3828246105       11.2764854892        1.3419097361
C           6.4829494937        8.4751461153       -0.3430977446
O           6.8490257831        7.8641973849        0.6656192038
N           7.2936735061        9.3032174096       -1.0072053197
H           6.9236319473        9.7933522038       -1.8107159497
CA          8.6598903228        9.6439085902       -0.5995497479
HA2         8.6756985123        9.8454750438        0.4723946502
HA3         9.3246071763        8.8028120872       -0.7971723075
C           9.2023679205       10.8753923179       -1.3339360028
O           8.7434962264       11.2126907755       -2.4293215519
N          10.1752102802       11.5564286562       -0.7264075888
H          10.5063487674       11.2218122070        0.1689670526
CA         10.7882420273       12.7866795493       -1.2406890966
HA2        11.3475825966       12.5653403796       -2.1500942066
HA3        10.0053641273       13.5044592955       -1.4889825710
C          11.7412503701       13.4394684612       -0.2323574388
O          12.0678647325       12.8465658336        0.8009611743
N          12.1796557734       14.6665342684       -0.5230311709
H          11.8619082053       15.0945817703       -1.3817467406
CA         13.0477035433       15.4754092237        0.3432173183
HA         12.9440264979       15.1288752669        1.3729576732
CB         14.5143420833       15.2843600174       -0.0763461873
HB2        14.7641293243       14.2240808304       -0.0114831342
HB3        14.6271425995       15.5830150279       -1.1200160400
CG         15.5039218938       16.0625346090        0.7725602655
CD1        15.8646190168       15.5835569689        2.0476557938
HD1        15.4547648313       14.6486053614        2.4110549221
CE1        16.7563289598       16.3189168343        2.8537695658
HE1        17.0325182257       15.9502122721        3.8322384980
CZ         17.2882841162       17.5402544176        2.3847107270
OH         18.1506201860       18.2542840938        3.1560335206
HH         18.3126609281       17.8166751185        4.0017048698
CE2        16.9280736163       18.0179075974        1.1064722356
HE2        17.3391720323       18.9531367350        0.7522024328
CD2        16.0375565789       17.2797047184        0.3024170812
HD2        15.7592633443       17.6538941969       -0.6754919074
C          12.6488557410       16.9610262246        0.3116493105
O          12.2772952824       17.4873258127       -0.7417894354
N          12.7494799799       17.6336284105        1.4626966884
H          13.1198911501       17.1444561388        2.2652651601
CA         12.4136987921       19.0496254017        1.6607363936
HA         12.4587613479       19.5704729117        0.7028393945
CB         10.9831147328       19.1767197949        2.2159082561
HB2        10.9161351895       18.6244994766        3.1550005276
HB3        10.7928483136       20.2257618177        2.4486412583
CG          9.8870858576       18.6977656890        1.2781653046
CD1         9.3721668408       17.3893711812        1.3911159406
HD1         9.7550627545       16.7211566745        2.1526735113
CE1         8.3647156593       16.9453759499        0.5106545673
HE1         7.9733408113       15.9407771691        0.5937875020
CZ          7.8636200412       17.8161137610       -0.4817982907
OH          6.8928031600       17.4012440648       -1.3373369302
HH          6.6462114440       16.4760983417       -1.1828234997
CE2         8.3721388927       19.1281021868       -0.5876737691
HE2         7.9831291431       19.7900135941       -1.3491488761
CD2         9.3832435236       19.5663348036        0.2895036488
HD2         9.7746290663       20.5724824991        0.2008308140
C          13.4163508184       19.7269523673        2.6119200252
O          13.9303547240       19.0932208190        3.5393462293
N          13.6746068568       21.0240886632        2.4042124265
H          13.2066298535       21.4777819545        1.6311523979
CH3        14.5925262041       21.8300816925        3.2098425346
HH31       14.2499327655       21.8660481969        4.2460032630
HH32       14.6399396367       22.8481093907        2.8185977579
HH33       15.5941057710       21.3956306002        3.1845259409
         110
Energy of minimum      5=    -153.2617709     first found at step        0 after                28927 function calls
HH31       -0.6651780334        3.0634494718       -0.0457656714
CH3        -0.2307863622        3.9552556983       -0.4951605678
HH32       -0.7094149081        4.8421777009       -0.0826808753
HH33       -0.3798809302        3.9302485559       -1.5735916777
C           1.2494177680        4.0022052650       -0.1970066058
O           1.7733406600        3.1094912668        0.4673350732
N           1.9208704464        5.0424635405       -0.6869231268
H           1.4004825821        5.7342624263       -1.2079437203
CA          3.3578031836        5.2865341973       -0.5041264260
HA          3.6823967993        4.8226072574        0.4288489137
CB          4.1331867045        4.6354372596       -1.6632609484