         110
Energy of minimum      1=    -153.4813884     first found at step        0 after                15064 function calls
HH31        0.9238971884        2.3761675056        2.1826616818
CH3         1.3314868516        2.9407612464        1.3453598591
HH32        0.6855850205        3.7903450044        1.1288574886
HH33        1.3937235377        2.2987848975        0.4679426774
C           2.7130288692        3.4405643196        1.6969877794
O           3.1992588559        3.1861724253        2.7977339780
N           3.3426128542        4.1511338469        0.7633266375
H           2.8554392653        4.3218420245       -0.1052195089
CA          4.6814566004        4.7389881230        0.9039605983
HA          4.8742261152        4.9381847852        1.9595105688
CB          5.7308545092        3.7315232176        0.4023587450
HB2         5.6415423842        2.8120359419        0.9831031164
HB3         5.5121032739        3.4816812249       -0.6373507587
CG          7.1652805428        4.2203090962        0.5021884383
CD1         7.8342138482        4.6942934410       -0.6449986284
HD1         7.3328408985        4.6927842798       -1.6054885413
CE1         9.1543831819        5.1766772047       -0.5466072154
HE1         9.6662127717        5.5391665367       -1.4276118450
CZ          9.8102686288        5.1852096495        0.7039277450
OH         11.0869424946        5.6415584705        0.8054593551
HH         11.4300516599        5.9255336924       -0.0513801271
CE2         9.1401875854        4.7088551371        1.8513100583
HE2         9.6483174692        4.7163150403        2.8057930523
CD2         7.8196086160        4.2284049219        1.7498634647
HD2         7.3080539557        3.8650889548        2.6332285802
C           4.7940835498        6.0750712567        0.1470604815
O           4.1456861517        6.2689263819       -0.8862092207
N           5.6325584585        6.9879161435        0.6469327054
H           6.1538894565        6.7486008667        1.4793662002
CA          5.9697208211        8.2665312956        0.0099942410
HA          5.9206607962        8.1443473530       -1.0733706759
CB          4.9443592674        9.3367958811        0.4257844763
HB2         3.9439521893        8.9893865972        0.1631984727
HB3         4.9750501278        9.4549733661        1.5103024429
CG          5.1626108140       10.6879599035       -0.2328338087
CD1         5.6938380270       11.7643206207        0.5073676038
HD1         5.9198645868       11.6410435222        1.5597415473
CE1         5.9432160567       13.0009789725       -0.1208301600
HE1         6.3517171552       13.8262409941        0.4462244399
CZ          5.6627854863       13.1622624658       -1.4951609506
OH          5.9017495456       14.3496761347       -2.1109030052
HH          6.2489555879       15.0104712730       -1.4911611294
CE2         5.1261911791       12.0860134880       -2.2335218839
HE2         4.9112462437       12.2170217192       -3.2851561119
CD2         4.8761918666       10.8518465850       -1.6025828612
HD2         4.4676191961       10.0269636970       -2.1741640573
C           7.4018450001        8.7073378837        0.3676808803
O           7.9172662772        8.3673852417        1.4370436426
N           8.0346587530        9.4899171740       -0.5103251209
H           7.5439418869        9.7579160572       -1.3531830954
CA          9.3600215604       10.0816734018       -0.3049811625
HA2         9.4173889756       10.4967224771        0.7021545123
HA3        10.1260761127        9.3119153261       -0.3999697714
C           9.6665176763       11.1995606983       -1.3083541021
O           9.0431475974       11.2863358251       -2.3704876595
N          10.6227048806       12.0655724589       -0.9692996258
H          11.1035431303       11.9285165325       -0.0899677727
CA         11.0174437094       13.2321404168       -1.7672861509
HA2        11.4289431645       12.9031554158       -2.7219187930
HA3        10.1370443383       13.8435183005       -1.9694990218
C          12.0639525285       14.1047540365       -1.0648459364
O          12.6889833467       13.6762742584       -0.0895025880
N          12.2463278501       15.3348624013       -1.5503380666
H          11.6852003906       15.6209750148       -2.3406790124
CA         13.1620279898       16.3363792313       -0.9876134592
HA         13.4073800849       16.0577218752        0.0386146488
CB         14.4675908839       16.3484738068       -1.7982951870
HB2        14.8941380806       15.3440241290       -1.7925145180
HB3        14.2393936274       16.5997937860       -2.8355534329
CG         15.5137012710       17.3139941897       -1.2708690075
CD1        15.7005987786       18.5660079687       -1.8913689828
HD1        15.1080164322       18.8369664832       -2.7570212071
CE1        16.6545905337       19.4713938910       -1.3858746339
HE1        16.7968910412       20.4314741934       -1.8628594621
CZ         17.4257411018       19.1245907535       -0.2548196432
OH         18.3525244347       19.9902965259        0.2352485531
HH         18.3816434114       20.8059002151       -0.2812556237
CE2        17.2387012384       17.8700629914        0.3645165231
HE2        17.8333962788       17.6093992543        1.2292415015
CD2        16.2832740959       16.9674247424       -0.1427271800
HD2        16.1417116565       16.0058192126        0.3361629342
C          12.5111909074       17.7298031671       -0.9444501381
O          11.7623019622       18.0996566609       -1.8541170757
N          12.8090573578       18.5006081468        0.1064805714
H          13.4845840807       18.1535891777        0.7725889869
CA         12.2423690648       19.8279307241        0.3799938235
HA         11.8680037612       20.2612592023       -0.5489355819
CB         11.0646058488       19.6981362439        1.3635106501
HB2        11.4253978757       19.2495017531        2.2908197049
HB3        10.7073117609       20.6989107297        1.6117224075
CG          9.8835732304       18.8902948342        0.8500145602
CD1         8.8952612190       19.5157092313        0.0639726147
HD1         8.9786572329       20.5694277565       -0.1731907041
CE1         7.7971311628       18.7747664918       -0.4155342550
HE1         7.0399101205       19.2578986186       -1.0178569005
CZ          7.6871872663       17.3999084257       -0.1132555649
OH          6.6268353642       16.6847842686       -0.5751730066
HH          6.0175298272       17.2561346771       -1.0614596441
CE2         8.6765796009       16.7724310580        0.6740428594
HE2         8.5859148757       15.7204535981        0.9058820100
CD2         9.7697887800       17.5186607966        1.1583446267
HD2        10.5250537029       17.0355949784        1.7659213006
C          13.3065561179       20.7836048332        0.9483109848
O          14.2242844431       20.3556806473        1.6556816743
N          13.1698770062       22.0854152488        0.6669574358
H          12.3865166694       22.3606132263        0.0897885347
CH3        14.0741373812       23.1381440020        1.1310391929
HH31       15.0885584590       22.9449817466        0.7761263868
HH32       13.7467108247       24.1079551707        0.7515770010
HH33       14.0828541070       23.1713108934        2.2224444062
         110
Energy of minimum      2=    -153.4419363     first found at step        0 after                52866 function calls
HH31        3.5982034210        2.0263182316        1.5282822845
CH3         4.2374055516        1.6624221564        0.7252521403
HH32        4.4306470266        0.5998760000        0.8653406760
HH33        3.7434273074        1.8205102611       -0.2322779094
C           5.5437087837        2.4209291600        0.7440848990
O           6.6042368669        1.8188479046        0.9040295653
N           5.4663925133        3.7402720827        0.5817969349
H           4.5480360986        4.1471206694        0.4725255595
CA          6.6095705558        4.6625671021        0.5797790860
HA          7.4120784215        4.2383536814        1.1856663887
CB          7.1269316688        4.8267570655       -0.8614049203
HB2         7.4557597164        3.8541430395       -1.2308505071
HB3         6.3025388580        5.1546824959       -1.4971321894
CG          8.2768884333        5.8097347747       -1.0031787116
CD1         8.0340197805        7.1211690835       -1.4610773938
HD1         7.0324455700        7.4212104099       -1.7448988702
CE1         9.0898838581        8.0505006007       -1.5370565360
HE1         8.9086876474        9.0585824188       -1.8832581012
CZ         10.3947385187        7.6699845075       -1.1579067668
OH         11.4103084001        8.5706532864       -1.2321071271
HH         12.2487062540        8.1804334424       -0.9540006848
CE2        10.6395037558        6.3540118202       -0.7073188024
HE2        11.6391374229        6.0600284914       -0.4177665100
CD2         9.5803598806        5.4275886780       -0.6287873650
HD2         9.7691837503        4.4210721281       -0.2746555381
C           6.2391150748        6.0288099100        1.1855482945
O           5.0954247363        6.4806697267        1.0705823527
N           7.2183828189        6.7029692992        1.7956669074
H           8.1322937072        6.2731141110        1.8377178166
CA          7.1367335390        8.0993043531        2.2368934729
HA          6.4288883910        8.6311355220        1.5987259016
CB          6.6222277902        8.1598665512        3.6840472275
HB2         5.6564076934        7.6549167696        3.7369862054
HB3         7.3118269117        7.6141426798        4.3303791238
CG          6.4509089523        9.5719161869        4.2147095770
CD1         7.4191760734       10.1300302056        5.0736679476
HD1         8.2814960944        9.5465398535        5.3733118183
CE1         7.2721700976       11.4514449553        5.5394493440
HE1         8.0125854691       11.8857670618        6.1971074201
CZ          6.1549943273       12.2195572798        5.1472770845
OH          6.0180978970       13.4947816261        5.5981290766
HH          5.2134724802       13.9055564872        5.2561250687
CE2         5.1844124703       11.6593846659        4.2879615281
HE2         4.3272818557       12.2459634662        3.9863229900
CD2         5.3346877161       10.3376527007        3.8232847349
HD2         4.5899417390        9.9104172850        3.1621749338
C           8.5061672420        8.7898192302        2.1039917248
O           9.5454614273        8.1750859375        2.3631119134
N           8.5123915553       10.0675594401        1.7162553095
H           7.6275966981       10.5234375699        1.5385755372
CA          9.7223369970       10.8751811465        1.5304656483
HA2        10.2456283544       10.9661631455        2.4828520735
HA3        10.3870038216       10.3764968963        0.8242343325
C           9.4295206916       12.2846894764        1.0031016364
O           8.2749308561       12.6404330842        0.7458729176
N          10.4775779226       13.0939780010        0.8389289398
H          11.3976189783       12.7407698849        1.0672178780
CA         10.3984014547       14.4741957307        0.3457197199
HA2         9.7600702583       15.0599331046        1.0080978304
HA3         9.9493449206       14.4787467231       -0.6480858448
C          11.7653185642       15.1639770660        0.2596963491
O          12.7962964150       14.5704559996        0.5920711066
N          11.7745315808       16.4217939355       -0.1877216671
H          10.8887358350       16.8470203964       -0.4255713317
CA         12.9720378216       17.2608079569       -0.3331742694
HA         13.7228549440       16.9409697680        0.3915723908
CB         13.5524667850       17.0723841695       -1.7462767691
HB2        13.7989622969       16.0189374946       -1.8883335305
HB3        12.7864514150       17.3291233006       -2.4801600382
CG         14.7982457388       17.8955300091       -2.0237345686
CD1        16.0395254822       17.4927261801       -1.4924936344
HD1        16.1100859754       16.5803720250       -0.9121220230
CE1        17.1905298011       18.2757548351       -1.7112567455
HE1        18.1427204770       17.9656874647       -1.3028617219
CZ         17.1004248690       19.4688860396       -2.4616072472
OH         18.2067276261       20.2288973453       -2.6776857336
HH         18.9876679252       19.8413458281       -2.2621470574
CE2        15.8572759357       19.8697111361       -2.9959567672
HE2        15.7946514772       20.7833274844       -3.5708023401
CD2        14.7089610066       19.0835148667       -2.7777540564
HD2        13.7557869582       19.3995398416       -3.1843223148
C          12.6606775017       18.7439595161       -0.0589489210
O          11.5425887309       19.2074425362       -0.3049834233
N          13.6549636806       19.4930605729        0.4271645791
H          14.5512182491       19.0507775916        0.5787753238
CA         13.6042775390       20.9469614501        0.6206625996
HA         12.9300877478       21.3789757033       -0.1208438619
CB         13.0502293750       21.2597155760        2.0207192528
HB2        12.0816187274       20.7702430261        2.1340580043
HB3        13.7191437058       20.8340619456        2.7707183909
CG         12.8641140845       22.7407396242        2.2980712355
CD1        13.7858117727       23.4335903777        3.1089869406
HD1        14.6260417642       22.9081627691        3.5470035635
CE1        13.6211542058       24.8123258323        3.3489197277
HE1        14.3298137944       25.3427482162        3.9703136801
CZ         12.5305561837       25.5027500959        2.7761961288
OH         12.3654502238       26.8330876758        3.0025458599
HH         13.0629281919       27.1834307100        3.5717379848
CE2        11.6080370908       24.8077906197        1.9649608780
HE2        10.7742389885       25.3414218370        1.5296126303
CD2        11.7754599739       23.4293144840        1.7270243253
HD2        11.0646961583       22.8988275536        1.1044711328
C          14.9958017625       21.5760694054        0.4190603259
O          16.0136536119       20.9656491351        0.7620471795
N          15.0437538384       22.8000717406       -0.1214941035
H          14.1658185023       23.2462467095       -0.3493435740
CH3        16.2739525611       23.5445754393       -0.3903621979
HH31       16.9195496910       22.9720622534       -1.0596665870
HH32       16.0379214221       24.5011389267       -0.8601491996
HH33       16.8093968642       23.7321736961        0.5424318516
         110
Energy of minimum      3=    -153.3116399     first found at step        0 after                53500 function calls
HH31        3.6613991939        2.0779564508        1.5231614589
CH3         4.2947042299        1.7163546097        0.7144427527
HH32        4.4843512288        0.6521991838        0.8470273270
HH33        3.7961507363        1.8822702305       -0.2393845506
C           5.6041895163        2.4694149187        0.7306966870
O           6.6630988034        1.8620645300        0.8811636756
N           5.5313965143        3.7900238525        0.5768325210
H           4.6141320953        4.2012600615        0.4750724567
CA          6.6783176548        4.7076581814        0.5741251374
HA          7.4823792795        4.2765104648        1.1730174382
CB          7.1884640957        4.8785016576       -0.8688564078
HB2         7.5112999828        3.9068265910       -1.2459777258
HB3         6.3619547563        5.2136123674       -1.4980550071
CG          8.3416265756        5.8576647826       -1.0109909817
CD1         8.1016040719        7.1728296839       -1.4595964123
HD1         7.0997232439        7.4786377837       -1.7360855911
CE1         9.1608161272        8.0983291726       -1.5357483982
HE1         8.9818396320        9.1092212325       -1.8748367631
CZ         10.4661641633        7.7102428618       -1.1660890022
OH         11.4849744911        8.6072338882       -1.2404159881
HH         12.3232864024        8.2119482096       -0.9692913351
CE2        10.7080247749        6.3905768039       -0.7248310951
HE2        11.7080214491        6.0908000801       -0.4425634322
CD2         9.6455586486        5.4679831041       -0.6460910661
HD2         9.8322133562        4.4585774977       -0.2991045075
C           6.3167813522        6.0716885096        1.1901813556
O           5.1743480628        6.5288966234        1.0842129332
N           7.3021190698        6.7381280609        1.7990067722
H           8.2144704521        6.3043016317        1.8334556946
CA          7.2286182889        8.1320797788        2.2491122078
HA          6.5195078769        8.6706617259        1.6180505901
CB          6.7222467297        8.1859551293        3.6993958819
HB2         5.7546736765        7.6846126910        3.7545634026
HB3         7.4131163538        7.6335338423        4.3386425730
CG          6.5595883152        9.5954459017        4.2395019027
CD1         7.5348135541       10.1444373033        5.0964652683
HD1         8.3963836849        9.5556691247        5.3878283372
CE1         7.3957398779       11.4635893813        5.5710140511
HE1         8.1415115712       11.8909301683        6.2271919121
CZ          6.2795621355       12.2385619664        5.1896454368
OH          6.1503244665       13.5115733364        5.6489327223
HH          5.3455068528       13.9276478860        5.3138592215
CE2         5.3020120429       11.6875235636        4.3323250663
HE2         4.4456317787       12.2793700318        4.0389591525
CD2         5.4443609927       10.3680353799        3.8588591853
HD2         4.6942696117        9.9478187779        3.1992959601
C           8.6001410918        8.8177876681        2.1129089687
O           9.6382872974        8.1972472803        2.3626172395
N           8.6095218422       10.0978240163        1.7328861345
H           7.7256608893       10.5583888181        1.5628094528
CA          9.8217605268       10.9016001182        1.5453764040
HA2        10.3505849639       10.9846733554        2.4954265160
HA3        10.4805227632       10.4044846341        0.8325376741
C           9.5319052896       12.3154612167        1.0281268400
O           8.3774100241       12.6774980358        0.7793921877
N          10.5823936634       13.1214103059        0.8630742496
H          11.5021995207       12.7630490840        1.0841714444
CA         10.5062477391       14.5048965948        0.3786286764
HA2         9.8739865302       15.0892412567        1.0480216050
HA3        10.0517890112       14.5173049440       -0.6126508079
C          11.8755284167       15.1895406815        0.2892595001
O          12.9058269745       14.5897423340        0.6123235865
N          11.8875067180       16.4500254048       -0.1505427829
H          11.0021902027       16.8803195846       -0.3809460489
CA         13.0876272903       17.2851167209       -0.2975238805
HA         13.8416673258       16.9563480048        0.4198270110
CB         13.6571322003       17.1044362567       -1.7155036193
HB2        13.8793570900       16.0478325788       -1.8734248729
HB3        12.8934321645       17.3878706648       -2.4419274711
CG         14.9207457757       17.9010713933       -1.9886000697
CD1        16.1536380145       17.4630025572       -1.4661465162
HD1        16.2037723153       16.5474437223       -0.8888234090
CE1        17.3236941170       18.2140357807       -1.6939260520
HE1        18.2732894098       17.8821877939       -1.2971053387
CZ         17.2634933227       19.4081083320       -2.4442327734
OH         18.3964958972       20.1256648501       -2.6674824200
HH         18.2181630092       20.9111931825       -3.2001168431
CE2        16.0276505698       19.8468234753       -2.9679959084
HE2        15.9791228447       20.7604019300       -3.5446481684
CD2        14.8594989957       19.0928441666       -2.7395300084
HD2        13.9125089901       19.4345082776       -3.1399878984
C          12.7825675547       18.7667526879       -0.0092843576
O          11.6655341975       19.2358600061       -0.2495718521
N          13.7773531313       19.5075866263        0.4884337656
H          14.6744857866       19.0642228932        0.6315728891
CA         13.7157472181       20.9537753928        0.7329376821
HA         13.0414854923       21.4070693194        0.0043162085
CB         13.1530633965       21.2104075554        2.1413961294
HB2        12.1898082285       20.7061843879        2.2336900231
HB3        13.8242501933       20.7656027817        2.8781448018
CG         12.9476519781       22.6779445615        2.4720220726
CD1        13.8497976567       23.3482536470        3.3226840489
HD1        14.6890506845       22.8157231737        3.7537653217
CE1        13.6657075827       24.7149607881        3.6110057114
HE1        14.3552559263       25.2348686364        4.2618538097
CZ         12.5776099286       25.4163845248        3.0489014986
OH         12.4043918114       26.7353228031        3.3294558346
HH         11.6253389326       27.0917964924        2.8831389216
CE2        11.6736517260       24.7442108818        2.1972382879
HE2        10.8384054560       25.2792827915        1.7661163716
CD2        11.8604562555       23.3772224390        1.9109421240
HD2        11.1648334463       22.8629452867        1.2582876029
C          15.1021912056       21.6032131169        0.5623974031
O          16.1264728528       20.9793450545        0.8585984669
N          15.1387601848       22.8599422615        0.1018507034
H          14.2560418002       23.3130792079       -0.0914712123
CH3        16.3608519599       23.6351856615       -0.1115373373
HH31       17.0260490644       23.1064987662       -0.7971777628
HH32       16.1165353518       24.6098936140       -0.5378491897
HH33       16.8789051181       23.7853148854        0.8377384326
         110
Energy of minimum      4=    -153.1320666     first found at step      158 after               110299 function calls
HH31        5.7306470976       -3.9984078510       -1.2761479319
CH3         6.7424000257       -3.6291113531       -1.4372740226
HH32        6.9280351138       -3.5273122263       -2.5054658816
HH33        7.4588456786       -4.3283996318       -1.0088286144
C           6.9006855373       -2.2818758933       -0.7724432679
O           5.9564382269       -1.7757032672       -0.1680758546
N           8.0932985017       -1.6997661485       -0.8800186707
H           8.8069401604       -2.1828201086       -1.4048844878
CA          8.4218172865       -0.3833591178       -0.3182411001
HA          8.0572804496       -0.3512981227        0.7100635901
CB          9.9504489342       -0.2135973807       -0.2769121622
HB2        10.3760742450       -1.0022197702        0.3458360392
HB3        10.3478673667       -0.3423957739       -1.2852517921
CG         10.4091861786        1.1304110804        0.2634780829
CD1        10.7887408643        2.1576619523       -0.6248873639
HD1        10.7870354066        1.9802592968       -1.6936576140
CE1        11.1564363788        3.4230766591       -0.1270650323
HE1        11.4439166464        4.2157264254       -0.8038085509
CZ         11.1490000292        3.6648721369        1.2631260120
OH         11.5035249264        4.8880226974        1.7388322387
HH         11.4654765134        4.9158384205        2.7033525615
CE2        10.7769092083        2.6334813793        2.1533124478
HE2        10.7717965793        2.8164629567        3.2191585222
CD2        10.4057244953        1.3696908173        1.6520348723
HD2        10.1119191853        0.5830424888        2.3368685555
C           7.7533010419        0.7748240751       -1.0853086864
O           7.5911933776        0.7184759858       -2.3085153446
N           7.4167465926        1.8515834019       -0.3687186235
H           7.5948305738        1.8310113427        0.6258500516
CA          6.9904725879        3.1396359247       -0.9256257456
HA          7.4320481228        3.2603050845       -1.9163243055
CB          5.4606814520        3.1635000049       -1.0730225582
HB2         5.1530369485        2.3235352870       -1.6978461523
HB3         5.0059948218        3.0235683649       -0.0907898771
CG          4.9248300558        4.4407416080       -1.6946355758
CD1         4.3532617240        5.4405237726       -0.8818567464
HD1         4.2776539802        5.2936431512        0.1889125075
CE1         3.8850616242        6.6374206830       -1.4588510120
HE1         3.4473156061        7.4088683176       -0.8402977620
CZ          3.9870146524        6.8382654980       -2.8520989246
OH          3.5351538852        7.9954828900       -3.4042573977
HH          3.6639686003        8.0035910721       -4.3615786542
CE2         4.5582696382        5.8356488316       -3.6661425730
HE2         4.6371660915        5.9871534114       -4.7341087218
CD2         5.0262444542        4.6399158663       -3.0858861942
HD2         5.4662910758        3.8727341231       -3.7120038189
C           7.4836573939        4.3005039910       -0.0431431756
O           7.4964190856        4.1910118564        1.1869529112
N           7.8759482536        5.4163556897       -0.6628138884
H           7.8229823923        5.4533293643       -1.6718107840
CA          8.3808547224        6.6131870767        0.0178777482
HA2         9.2270877733        6.3418050069        0.6498792807
HA3         7.5977292990        7.0228331638        0.6566615901
C           8.8364730971        7.7095663524       -0.9521316738
O           8.7896786537        7.5371144207       -2.1743701478
N           9.2811379642        8.8444598188       -0.4093499530
H           9.2947733256        8.9215026938        0.5992238285
CA          9.7591085639       10.0042023736       -1.1716208784
HA2        10.6013343960        9.7050689666       -1.7965186718
HA3         8.9628328173       10.3615947114       -1.8254667960
C          10.2099296785       11.1681315566       -0.2807305305
O          10.1481502760       11.0844738336        0.9500585502
N          10.6649325915       12.2578671402       -0.9034825930
H          10.6705514851       12.2587808755       -1.9144187624
CA         11.1314117201       13.4818676106       -0.2376436090
HA         10.6223213409       13.5827685687        0.7225264326
CB         12.6436650256       13.3687071903        0.0260696697
HB2        12.8276739777       12.4940279544        0.6519825378
HB3        13.1565695528       13.2033117297       -0.9230628054
CG         13.2498882537       14.5813225982        0.7105944908
CD1        13.0540861566       14.7798035502        2.0917208901
HD1        12.4972047414       14.0520866186        2.6700903221
CE1        13.5782798447       15.9252488002        2.7233681322
HE1        13.4272129645       16.0766382119        3.7834885573
CZ         14.2987753499       16.8788619671        1.9708955329
OH         14.8083426438       17.9858105962        2.5735719616
HH         14.6044481822       17.9990380658        3.5174937450
CE2        14.4970582924       16.6774497562        0.5882435633
HE2        15.0506938173       17.4101828942        0.0175826230
CD2        13.9740538225       15.5301401400       -0.0398417674
HD2        14.1231970557       15.3839899901       -1.1029065667
C          10.8100063812       14.7368509668       -1.0704689706
O          10.7636367300       14.6782322329       -2.3033052540
N          10.6123702606       15.8759577998       -0.4000665267
H          10.6923977049       15.8530823559        0.6073779589
CA         10.4363654549       17.1990129714       -1.0103006676
HA         10.9834627901       17.2285913979       -1.9541277757
CB          8.9456342747       17.4339688330       -1.3060362575
HB2         8.5756075156       16.6150649327       -1.9249969251
HB3         8.3890678473       17.4090956376       -0.3675581084
CG          8.6538233849       18.7376759134       -2.0272780046
CD1         8.9325586670       18.8548677392       -3.4034939774
HD1         9.3394235728       18.0110386515       -3.9480925134
CE1         8.6819770355       20.0681303638       -4.0743466855
HE1         8.8936170712       20.1638114316       -5.1305489566
CZ          8.1509052532       21.1695872503       -3.3694578419
OH          7.9113177649       22.3386581457       -4.0207361579
HH          7.5495211781       23.0070595938       -3.4244660150
CE2         7.8710274246       21.0517049123       -1.9903732916
HE2         7.4647301438       21.8944864975       -1.4478620988
CD2         8.1228110484       19.8368498500       -1.3222988501
HD2         7.9104063952       19.7515249431       -0.2632789906
C          11.0041640313       18.3034363728       -0.0989204395
O          10.9284182094       18.2004935328        1.1298760173
N          11.5586309190       19.3664856230       -0.6948844067
H          11.5570106937       19.3907983433       -1.7054111327
CH3        12.1511969887       20.5025491595        0.0109411264
HH31       12.5588982137       21.2176892568       -0.7058423523
HH32       11.3935040574       21.0032831045        0.6168828615
HH33       12.9561470350       20.1591648905        0.6641470367
         110
Energy of minimum      5=    -153.1153709     first found at step      149 after               104499 function calls
HH31        5.4521582379       -2.9919027127       -1.1619736810
CH3         6.4002542350       -2.5960625936       -1.5230968501
HH32        6.3251202729       -2.3838568712       -2.5885457487
HH33        7.1895504276       -3.3267172225       -1.3527469583
C           6.7310265006       -1.3216975119       -0.7823672107
O           5.9662552056       -0.8909832941        0.0794244641
N           7.8702870522       -0.7174555971       -1.1136171570
H           8.4306227216       -1.1360119965       -1.8409029016
CA          8.3411137307        0.5387842237       -0.5164341037
HA          8.2346497841        0.4617231437        0.5671028371
CB          9.8369929624        0.7216682841       -0.8264883335