         110
Energy of minimum      1=    -154.0383948     first found at step       34 after                23741 function calls
HH31        1.7934880287        0.5748071078        1.3855541107
CH3         1.9411192694        1.4084541494        0.7005658274
HH32        1.1318722773        2.1272230136        0.8203466375
HH33        1.9520403111        1.0411279949       -0.3245304237
C           3.2580467891        2.0841853940        1.0025628231
O           3.9712139186        1.6660906294        1.9132721019
N           3.5784991429        3.1275044372        0.2398199124
H           2.9209071836        3.4066740302       -0.4746574317
CA          4.8014495175        3.9302648333        0.3718580420
HA          5.1442287569        3.8917726357        1.4072796404
CB          5.9013941633        3.3310390096       -0.5241070906
HB2         6.1113197516        2.3131731257       -0.1917334842
HB3         5.5278582349        3.2687664391       -1.5477794210
CG          7.2021724770        4.1162751480       -0.5235447782
CD1         7.4962745739        4.9980632225       -1.5839510856
HD1         6.8120829674        5.0919248482       -2.4187003971
CE1         8.6728444646        5.7720369324       -1.5542932847
HE1         8.9009797818        6.4534943347       -2.3621030503
CZ          9.5622215946        5.6642259327       -0.4640526438
OH         10.6955896526        6.4145503334       -0.4391506396
HH         11.2167659125        6.2398684303        0.3548338284
CE2         9.2722361790        4.7740652007        0.5934631269
HE2         9.9534641833        4.6887755134        1.4290324192
CD2         8.0923469798        4.0039008184        0.5628256555
HD2         7.8675344128        3.3286023894        1.3798724167
C           4.5531477730        5.4077887965        0.0166604020
O           3.7137972121        5.7196467633       -0.8340207546
N           5.3126788919        6.3134132040        0.6400942092
H           5.9887127847        5.9795363491        1.3133663282
CA          5.3958549463        7.7344619114        0.2871918101
HA          5.1899069526        7.8454953039       -0.7788127911
CB          4.3360050245        8.5320685449        1.0667296644
HB2         3.3445208838        8.1712739684        0.7890134687
HB3         4.4666762209        8.3466294282        2.1342602465
CG          4.3956468461       10.0274243840        0.8106067832
CD1         4.9597611691       10.8859037172        1.7752784190
HD1         5.3060949104       10.4884768218        2.7217172313
CE1         5.1017519953       12.2595037292        1.5007627407
HE1         5.5467538384       12.9185417920        2.2332893856
CZ          4.6836597063       12.7794799971        0.2573550024
OH          4.8668498588       14.0988585296       -0.0197012970
HH          4.5025499314       14.3276064925       -0.8850531284
CE2         4.0978350684       11.9232050614       -0.7006771846
HE2         3.7742338446       12.3195867898       -1.6534827675
CD2         3.9550409636       10.5490965269       -0.4222504104
HD2         3.5216370274        9.8904646532       -1.1655414393
C           6.8118603911        8.2831583730        0.5488380049
O           7.4759115462        7.8809582335        1.5091330951
N           7.2638604795        9.2178320167       -0.2910753598
H           6.6586981101        9.5190544255       -1.0429358287
CA          8.5607941953        9.8936222466       -0.1856792709
HA2         8.6384758174       10.3751861296        0.7897578451
HA3         9.3642025680        9.1612477166       -0.2710086099
C           8.7566509531       10.9596130048       -1.2709932735
O           7.9605166438       11.0581427985       -2.2105927402
N           9.8154533758       11.7628640515       -1.1498713430
H          10.4364529642       11.6289703554       -0.3632325151
CA         10.1304991023       12.8572781811       -2.0756811136
HA2        10.3894964300       12.4476434129       -3.0523934248
HA3         9.2473328648       13.4860598033       -2.1968524166
C          11.2891435826       13.7417424421       -1.6019483604
O          12.0574982778       13.3575361341       -0.7149833265
N          11.4013795311       14.9348241207       -2.1902414026
H          10.7199944979       15.1748374600       -2.8966770487
CA         12.3621670885       15.9832454870       -1.8211379709
HA         12.8473502394       15.7073726117       -0.8835999146
CB         13.4498932027       16.0887758518       -2.9002698145
HB2        13.9133205147       15.1091118814       -3.0282579864
HB3        12.9836024104       16.3563619702       -3.8500085133
CG         14.5414242477       17.0930399220       -2.5782602237
CD1        14.5455833897       18.3598479986       -3.1965250668
HD1        13.7769631230       18.6159425396       -3.9159527904
CE1        15.5461705349       19.2994605852       -2.8782152530
HE1        15.5480136665       20.2711802805       -3.3528740332
CZ         16.5469878492       18.9725820720       -1.9370859038
OH         17.5180330937       19.8724581954       -1.6275857675
HH         17.4050451157       20.6962781651       -2.1190560454
CE2        16.5422095885       17.7032762938       -1.3196890740
HE2        17.3122367624       17.4579128756       -0.6011624545
CD2        15.5402895429       16.7660746531       -1.6398717144
HD2        15.5399481703       15.7927612318       -1.1636418854
C          11.6428438945       17.3238689170       -1.5895042869
O          10.6416260650       17.6173118014       -2.2513624935
N          12.1374128139       18.1265942270       -0.6410261753
H          13.0128540967       17.8719021851       -0.2072143240
CA         11.4238925300       19.2791199734       -0.0711874119
HA         10.6491228487       19.6019246387       -0.7683655813
CB         10.7369473161       18.8555167148        1.2426238163
HB2        11.5027265526       18.7145828152        2.0075064846
HB3        10.0922267411       19.6686998226        1.5796360222
CG          9.9082829250       17.5823900007        1.1500348123
CD1         8.5876765801       17.6261354154        0.6592862333
HD1         8.1484738647       18.5737710178        0.3722956591
CE1         7.8415937073       16.4370937263        0.5263157099
HE1         6.8298641695       16.4704883289        0.1458577434
CZ          8.4211983209       15.1981940590        0.8773695781
OH          7.7190547897       14.0440927027        0.7390182510
HH          6.8143711524       14.2045797449        0.4317702733
CE2         9.7399974245       15.1556496102        1.3754787071
HE2        10.1780189123       14.2043813238        1.6435715398
CD2        10.4785639954       16.3458328942        1.5169526851
HD2        11.4932517597       16.3065220467        1.8934339190
C          12.3589293663       20.4767166522        0.1731872785
O          13.5536474921       20.3027486043        0.4337952082
N          11.8110115790       21.6972213025        0.1207301153
H          10.8233961249       21.7586398226       -0.0877318651
CH3        12.5376573147       22.9481361479        0.3413086332
HH31       13.3461326228       23.0460066934       -0.3861491133
HH32       11.8616861663       23.7985290990        0.2333870825
HH33       12.9642115171       22.9622935426        1.3464055496
         110
Energy of minimum      2=    -153.4314634     first found at step       74 after                50493 function calls
HH31        2.5585037301       -1.2825464363       -1.0289066327
CH3         2.6601577625       -0.3511166766       -1.5839527620
HH32        1.6924018111        0.1442735410       -1.6463571357
HH33        3.0255824013       -0.5623582356       -2.5878014332
C           3.6403093825        0.5549280265       -0.8764916166
O           4.1786950928        0.1866298218        0.1662462741
N           3.8699587666        1.7380975612       -1.4424876082
H           3.3683673934        1.9579588975       -2.2915534624
CA          4.7736143557        2.7690033609       -0.9151096599
HA          4.8381800735        2.6667433790        0.1695326881
CB          6.1808270479        2.5606779348       -1.5050071264
HB2         6.5481807777        1.5788650255       -1.2022021084
HB3         6.1104039384        2.5601361598       -2.5942033179
CG          7.1968420242        3.6073135699       -1.0795376387
CD1         7.5231643766        4.6700639393       -1.9470589768
HD1         7.0756158687        4.7247686803       -2.9321676865
CE1         8.4208154744        5.6726068433       -1.5306324330
HE1         8.6713268430        6.4920306745       -2.1899510563
CZ          8.9985417898        5.6139216957       -0.2445622612
OH          9.8636545708        6.5842326256        0.1531391199
HH         10.1918826020        6.4195483247        1.0462621360
CE2         8.6781229840        4.5449909572        0.6211385643
HE2         9.1210418983        4.4974277267        1.6065803591
CD2         7.7767591065        3.5454979683        0.2030833678
HD2         7.5260503314        2.7310049038        0.8723260660
C           4.2582977823        4.1873864212       -1.2207822361
O           3.6116323250        4.4159428127       -2.2479156765
N           4.5800385606        5.1465867067       -0.3477890611
H           5.1235869754        4.8839982295        0.4629953409
CA          4.3846575372        6.5845078476       -0.5606360320
HA          4.4213547112        6.7918728463       -1.6315234627
CB          3.0037801842        7.0068045225       -0.0339576009
HB2         2.2382172730        6.4090999341       -0.5312010140
HB3         2.9472207867        6.7870043783        1.0335614508
CG          2.6839516893        8.4735773718       -0.2600501626
CD1         2.8094229369        9.3987697220        0.7961224575
HD1         3.1183284204        9.0625262220        1.7787262509
CE1         2.5404760406       10.7644005618        0.5767518427
HE1         2.6386022684       11.4732797953        1.3876339662
CZ          2.1439814110       11.2083257742       -0.7037986408
OH          1.8836008508       12.5244643750       -0.9233491473
HH          2.0067086655       13.0473609321       -0.1205248924
CE2         2.0175003442       10.2807983821       -1.7600959570
HE2         1.7133702671       10.6264454351       -2.7386020403
CD2         2.2878627146        8.9161577175       -1.5376913665
HD2         2.1917474577        8.2072473088       -2.3515143635
C           5.5084982743        7.3892278497        0.1169529926
O           5.9575098960        7.0378894310        1.2124541913
N           5.9546208135        8.4742910125       -0.5206962773
H           5.5332637264        8.7228484564       -1.4055342839
CA          7.0231159171        9.3492193442       -0.0271342212
HA2         6.7108187843        9.8059731786        0.9125365552
HA3         7.9182943564        8.7566430210        0.1645256157
C           7.3875056446       10.4674230742       -1.0106933150
O           6.8249698484       10.5588879246       -2.1065767504
N           8.3340833346       11.3237896883       -0.6221687573
H           8.7563397446       11.1926896783        0.2876984596
CA          8.8174261751       12.4549061049       -1.4230987239
HA2         9.2180266101       12.0852003468       -2.3676423434
HA3         7.9848777677       13.1227629346       -1.6469903607
C           9.9119420861       13.2678264093       -0.7210593483
O          10.3032899830       12.9596014692        0.4092063170
N          10.4077361720       14.3100072192       -1.3921916150
H          10.0259736239       14.5102450661       -2.3066250506
CA         11.4484742489       15.2205424466       -0.8952859279
HA         11.4044208630       15.2529717593        0.1948000326
CB         12.8301203281       14.6819370272       -1.3078658371
HB2        12.9583298789       13.6827322725       -0.8885302782
HB3        12.8616926172       14.5852385220       -2.3945728153
CG         13.9960830412       15.5429467337       -0.8543119473
CD1        14.6334012361       16.4095408206       -1.7657205470
HD1        14.3108078452       16.4448877151       -2.7993523975
CE1        15.6850742604       17.2407449499       -1.3327916861
HE1        16.1757658571       17.9096228471       -2.0262528129
CZ         16.1044238239       17.2065778448        0.0142745897
OH         17.1221499931       18.0079549057        0.4268773151
HH         17.3102411293       17.8840489590        1.3660285487
CE2        15.4695914402       16.3341141974        0.9255935453
HE2        15.7910160516       16.3047944116        1.9577862615
CD2        14.4160969970       15.5056835844        0.4900998692
HD2        13.9270938777       14.8408365601        1.1922777774
C          11.2395597337       16.6556256461       -1.4137233165
O          10.7089729378       16.8566405499       -2.5107830860
N          11.6779277215       17.6512462682       -0.6374261151
H          12.1262003921       17.4093615645        0.2357379692
CA         11.7019362159       19.0701510551       -1.0115534855
HA         11.8258078366       19.1485416150       -2.0929929507
CB         10.3646089638       19.7252049626       -0.6276240354
HB2         9.5514449707       19.1650410828       -1.0919689994
HB3        10.2319155694       19.6547178143        0.4533708485
CG         10.2393601492       21.1768585155       -1.0542497882
CD1        10.3885814600       22.2113526597       -0.1083595752
HD1        10.5827846929       21.9733708819        0.9306632941
CE1        10.2909266732       23.5582252402       -0.5108385748
HE1        10.4068405070       24.3508090289        0.2158330882
CZ         10.0429886399       23.8737246578       -1.8647547981
OH          9.9481602055       25.1708238216       -2.2607768386
HH         10.0692355221       25.7763547097       -1.5178983884
CE2         9.8931444433       22.8370345629       -2.8107637685
HE2         9.7025754877       23.0844608426       -3.8461254523
CD2         9.9913134257       21.4914202677       -2.4051462423
HD2         9.8747756271       20.6981178040       -3.1340253435
C          12.8877687712       19.7931598047       -0.3453572483
O          13.2602677923       19.4705417096        0.7875319436
N          13.4721552668       20.7797127218       -1.0366498888
H          13.0914792538       21.0038710986       -1.9458236486
CH3        14.6106847575       21.5673095784       -0.5639909655
HH31       15.4544814203       20.9103910432       -0.3426297772
HH32       14.9130973986       22.2850282740       -1.3287463599
HH33       14.3388610150       22.1113525234        0.3427214505
         110
Energy of minimum      3=    -153.3189191     first found at step       67 after                46095 function calls
HH31        1.7807833874       -0.3269172455       -1.5111737056
CH3         1.7998545983        0.6993175648       -1.8751102389
HH32        0.9120484284        1.2262041817       -1.5286310747
HH33        1.8211258021        0.7002176717       -2.9638787386
C           3.0320495893        1.3989549680       -1.3513557714
O           3.8226130599        0.7961706245       -0.6271567583
N           3.1937353278        2.6691890003       -1.7165189204
H           2.4822755874        3.0838990757       -2.3019119466
CA          4.3110077592        3.5321772277       -1.3110046576
HA          4.6911403993        3.1945381776       -0.3453057154
CB          5.4456218777        3.4135321258       -2.3455126331
HB2         5.7897553641        2.3784721631       -2.3741299778
HB3         5.0484900411        3.6519509847       -3.3338195250
CG          6.6399439376        4.3106622715       -2.0671270596
CD1         6.7899793450        5.5259238099       -2.7665161625
HD1         6.0724107028        5.8072294018       -3.5278915890
CE1         7.8649460352        6.3857684386       -2.4675305018
HE1         7.9824748905        7.3207613780       -2.9975225814
CZ          8.7967277415        6.0311799116       -1.4689102694
OH          9.8319857175        6.8646950937       -1.1832789582
HH         10.3977155778        6.4998794168       -0.4909023922
CE2         8.6511728977        4.8100653588       -0.7743480320
HE2         9.3651241191        4.5358234789       -0.0097570068
CD2         7.5724905581        3.9536638347       -1.0730689512
HD2         7.4582419349        3.0213559755       -0.5328018031
C           3.8685155640        4.9983888988       -1.1521440970
O           2.9663756416        5.4648032875       -1.8550121008
N           4.5320291420        5.7343327722       -0.2555746043
H           5.2675950522        5.2850233077        0.2724792511
CA          4.4229187235        7.1894933510       -0.1082609534
HA          4.1537116771        7.6234989286       -1.0727886291
CB          3.3145743277        7.5300164269        0.9008251926
HB2         2.3795522785        7.0797229715        0.5638462499
HB3         3.5623313683        7.0845286587        1.8658451524
CG          3.0873669348        9.0201698096        1.0815370875
CD1         3.6136777893        9.6874753224        2.2060557968
HD1         4.1678221088        9.1356910725        2.9559234909
CE1         3.4268911765       11.0759076160        2.3546040886
HE1         3.8298624183       11.5937464665        3.2141515749
CZ          2.7122238388       11.8020163600        1.3779291824
OH          2.5357277674       13.1419724762        1.5248027249
HH          2.0314404009       13.5141783297        0.7897645298
CE2         2.1837931592       11.1327103507        0.2523021496
HE2         1.6355001247       11.6869738695       -0.4972976450
CD2         2.3729193347        9.7440429755        0.1062997591
HD2         1.9685477096        9.2327081044       -0.7593000012
C           5.7721435373        7.7924818488        0.3228065634
O           6.4971076991        7.1959738969        1.1251640661
N           6.1057078736        8.9779295830       -0.1933780670
H           5.4609234725        9.4272103708       -0.8295041050
CA          7.3523672606        9.6924656669        0.0999075830
HA2         7.3886376168        9.9342926049        1.1626191609
HA3         8.2024434915        9.0496474201       -0.1311456332
C           7.5017734248       10.9934617752       -0.6973712319
O           6.6437912783       11.3401144054       -1.5155991740
N           8.5960377287       11.7196642405       -0.4617066905
H           9.2608383438       11.3791137290        0.2205063244
CA          8.9146592805       12.9899983068       -1.1244677079
HA2         8.9741054544       12.8317764566       -2.2018505286
HA3         8.1180890908       13.7094292729       -0.9316074425
C          10.2400833147       13.6008683642       -0.6535720602
O          10.9267065409       13.0387194529        0.2056030688
N          10.6011717891       14.7559160921       -1.2173719121
H           9.9794212626       15.1642198828       -1.9020174634
CA         11.8220556905       15.5092541802       -0.8992639307
HA         12.1154975063       15.2958670633        0.1301121027
CB         12.9562418514       15.0483928844       -1.8313984117
HB2        13.1009491271       13.9742276196       -1.7050533628
HB3        12.6531556747       15.2158137432       -2.8664703181
CG         14.2866375686       15.7384415365       -1.5868406969
CD1        14.7187017339       16.7704228164       -2.4449227106
HD1        14.1107010296       17.0619826404       -3.2929914050
CE1        15.9395581418       17.4300401908       -2.2006430602
HE1        16.2698410044       18.2209932664       -2.8600486310
CZ         16.7333125043       17.0568012655       -1.0939578762
OH         17.9165904364       17.6827807443       -0.8564165362
HH         18.0974353011       18.3604410829       -1.5202159410
CE2        16.3003499593       16.0224764764       -0.2365719077
HE2        16.9134658947       15.7397924566        0.6081168329
CD2        15.0784770605       15.3656880866       -0.4827890242
HD2        14.7490592182       14.5728682983        0.1782584509
C          11.5941562344       17.0277980239       -1.0153239922
O          10.7778758187       17.4799344365       -1.8245319570
N          12.3257090657       17.8157165940       -0.2214901852
H          12.9965131797       17.3778717009        0.3951288625
CA         12.3280232926       19.2833478788       -0.2545820866
HA         12.1249365239       19.6142637853       -1.2745055461
CB         11.2127928687       19.8169406198        0.6607210004
HB2        10.2641907088       19.3708000038        0.3578523470
HB3        11.4102553897       19.4958065887        1.6849395065
CG         11.0518362569       21.3263689648        0.6309408769
CD1        11.5329997116       22.1140115249        1.6964433342
HD1        12.0104485083       21.6431960128        2.5474906061
CE1        11.3998377342       23.5162492843        1.6567201090
HE1        11.7706374819       24.1192581892        2.4743769991
CZ         10.7829568474       24.1351732496        0.5474528928
OH         10.6515036038       25.4875429300        0.5016395053
HH         11.0210667833       25.9049400059        1.2905614625
CE2        10.3009145210       23.3454182499       -0.5183917735
HE2         9.8285023043       23.8246933426       -1.3649343875
CD2        10.4355418613       21.9436797956       -0.4756371002
HD2        10.0632248326       21.3404792229       -1.2952195375
C          13.7017556721       19.8439084291        0.1598196860
O          14.3926358459       19.2530000332        0.9962472679
N          14.0934480693       20.9910134464       -0.4089841552
H          13.4595044904       21.4288539196       -1.0634500436
CH3        15.3569465593       21.6727638913       -0.1282592521
HH31       16.1968091388       21.0043070926       -0.3279973163
HH32       15.4528711357       22.5584997937       -0.7589389682
HH33       15.3913564206       21.9800284211        0.9188519715
         110
Energy of minimum      4=    -153.3086854     first found at step        4 after                 3227 function calls
HH31        2.7674040586       -1.4160818328       -0.8238672066
CH3         2.8981213741       -0.5009652397       -1.3995804579
HH32        1.9348068301       -0.0096967594       -1.5281794755
HH33        3.3169937994       -0.7405111907       -2.3758150175
C           3.8383661442        0.4273867573       -0.6673114721
O           4.3202668212        0.0907281020        0.4130762194
N           4.0973298029        1.5940950185       -1.2544316258
H           3.6418719291        1.7880897981       -2.1352095670
CA          4.9707727196        2.6418539276       -0.7096505629
HA          4.9771265810        2.5713142697        0.3794126673
CB          6.4077276991        2.4195145731       -1.2169493958
HB2         6.7589102203        1.4477278128       -0.8663819654
HB3         6.3958282085        2.3871313097       -2.3078745916
CG          7.3988199473        3.4802928478       -0.7683480764
CD1         7.7705442741        4.5180661827       -1.6477600552
HD1         7.3764366407        4.5431176826       -2.6566122965
CE1         8.6439548334        5.5342502300       -1.2132436113
HE1         8.9289608741        6.3346922302       -1.8818065932
CZ          9.1519152259        5.5142585620        0.1031015157
OH          9.9938585854        6.4976094851        0.5181218832
HH         10.2738200635        6.3596944002        1.4319734390
CE2         8.7861871422        4.4702677179        0.9811932898
HE2         9.1756494061        4.4523553396        1.9899219194
CD2         7.9091542948        3.4570766440        0.5447634120
HD2         7.6234156398        2.6618524516        1.2230785699
C           4.4717383363        4.0496298232       -1.0837212047
O           3.8809776729        4.2468269208       -2.1502729754
N           4.7455945148        5.0344984040       -0.2230612005
H           5.2450129800        4.7967691241        0.6230091857
CA          4.5610593114        6.4651980987       -0.4878996546
HA          4.6550537149        6.6414214984       -1.5608661494
CB          3.1536546351        6.8996462433       -0.0485657580
HB2         2.4162367475        6.2860973145       -0.5685281065
HB3         3.0400106624        6.7108394121        1.0203332324
CG          2.8455571866        8.3585382243       -0.3341203568
CD1         2.9136317720        9.3143007824        0.6998566344
HD1         3.1695615579        9.0074190128        1.7069892659
CE1         2.6560487982       10.6723995157        0.4266862887
HE1         2.7101084053       11.4047534448        1.2206659331
CZ          2.3285838385       11.0780710071       -0.8856719436
OH          2.0795942418       12.3867118999       -1.1571203266
HH          2.1591394112       12.9329801505       -0.3644246943
CE2         2.2595079380       10.1199686741       -1.9197595172
HE2         2.0081234530       10.4363799400       -2.9228201566
CD2         2.5183415688        8.7629508198       -1.6435138430
HD2         2.4664506222        8.0304845448       -2.4403201593
C           5.6464341307        7.2917017777        0.2252426735
O           6.0362177175        6.9733258038        1.3530183892
N           6.1254798639        8.3587360889       -0.4189130806
H           5.7520698237        8.5805540185       -1.3319421903
CA          7.1654070747        9.2499625538        0.1055395732
HA2         6.8028447873        9.7331514462        1.0134008502
HA3         8.0493733058        8.6651587752        0.3621183600
C           7.5813721548       10.3398992991       -0.8892255971
O           7.0784747204       10.3981969326       -2.0159327681
N           8.5051287869       11.2093179213       -0.4755748591
H           8.8779707630       11.1056832456        0.4590889821
CA          9.0300514991       12.3177423045       -1.2820364710
HA2         9.4811447598       11.9216184935       -2.1924903516
HA3         8.2102786978       12.9769039525       -1.5697444050
C          10.0846381301       13.1532326535       -0.5461971198
O          10.4148565844       12.8788806828        0.6119618610
N          10.6150362428       14.1766081805       -1.2198223040
H          10.2828772113       14.3492613759       -2.1589116555
CA         11.6268938758       15.1037164274       -0.6945738435
HA         11.5253943639       15.1660724715        0.3903528693
CB         13.0282589486       14.5573373467       -1.0190666708
HB2        13.1277891920       13.5623278981       -0.5822781047
HB3        13.1233399008       14.4482046691       -2.1008775386
CG         14.1696114687       15.4173216289       -0.5055783238
CD1        14.8750743191       16.2605662488       -1.3883186116
HD1        14.6166960803       16.2837880509       -2.4402664878
CE1        15.9149116271       17.0798737270       -0.9058961141
HE1        16.4554351170       17.7256784770       -1.5843355179
CZ         16.2523302619       17.0565997196        0.4651298022
OH         17.2600140668       17.8379690775        0.9367842281
HH         17.6642625834       18.3579116875        0.2305258193
CE2        15.5463104234       16.2108350551        1.3475204975
HE2        15.8105978859       16.1959344593        2.3959719581
CD2        14.5062074810       15.3937103158        0.8622779363
HD2        13.9659112773       14.7465651068        1.5429728094
C          11.4415892636       16.5224954666       -1.2638848862
O          10.9734319805       16.6888406871       -2.3946873330
N          11.8237043359       17.5435026345       -0.4907804793
H          12.2268185735       17.3314573600        0.4116833532
CA         11.8228408418       18.9557580717       -0.8915000581
HA         12.0037228699       19.0184706562       -1.9659035398
CB         10.4445638260       19.5706014398       -0.5939122013
HB2         9.6772700242       18.9720075976       -1.0874326145
HB3        10.2567776115       19.5177815790        0.4799072782
CG         10.2901326634       21.0074052587       -1.0596516268
CD1        10.3398952276       22.0656652679       -0.1297030331
HD1        10.4776377293       21.8564222550        0.9244079517
CE1        10.2160720470       23.3993060482       -0.5674827974
HE1        10.2557274464       24.2101903732        0.1470583570
CZ         10.0415416708       23.6776756646       -1.9408481687
OH          9.9220510244       24.9618377769       -2.3708854945
HH          9.9729847275       25.5863794281       -1.6356655017
CE2         9.9911076991       22.6172030811       -2.8708786789
HE2         9.8563207153       22.8361886567       -3.9213026775
CD2        10.1151816560       21.2848984105       -2.4299784999
HD2        10.0748261807       20.4732284348       -3.1467421423
C          12.9437422632       19.7342701091       -0.1769411810
O          13.2865625891       19.4272620468        0.9694967618
N          13.5046452457       20.7518111163       -0.8423796536
H          13.1497801136       20.9587900232       -1.7660381633
CH3        14.5706522085       21.6052839252       -0.3177541887
HH31       15.4321504720       20.9979408052       -0.0330542679
HH32       14.8816724481       22.3254601635       -1.0767662212
HH33       14.2162583799       22.1490834199        0.5601549199
         110
Energy of minimum      5=    -152.9821186     first found at step       46 after                31924 function calls
HH31        1.1158484731        1.0099192684        0.3302077923
CH3         1.3255594859        1.8756715716       -0.2962626050
HH32        0.4914818555        2.5739364934       -0.2452974966
HH33        1.4680673071        1.5545155857       -1.3270004165
C           2.5807575381        2.5605721087        0.1910802499
O           3.1886910669        2.1151378363        1.1630922182
N           2.9665202474        3.6422805176       -0.4827733088
H           2.3933702128        3.9411794725       -1.2593050326
CA          4.1460294016        4.4598753343       -0.1701059595
HA          4.3627254379        4.3815437173        0.8966587868
CB          5.3591262405        3.9207036591       -0.9507938300