         110
Energy of minimum      1=    -153.4419363     first found at step       58 after                39997 function calls
HH31        0.6945973501        1.1823724918       -1.0192520917
CH3         0.9954494701        2.1560120350       -1.4032904247
HH32        0.1803450691        2.8667357673       -1.2754869720
HH33        1.2411707547        2.0713030448       -2.4607948396
C           2.2080458822        2.6454709827       -0.6468807728
O           2.6932920245        1.9591549012        0.2510670915
N           2.6949699466        3.8307034943       -1.0089716231
H           2.2187457057        4.3282588113       -1.7482237381
CA          3.8550071431        4.4930827722       -0.3981888416
HA          3.9509701292        4.1625316139        0.6374763366
CB          5.1311510750        4.0834472465       -1.1566660032
HB2         5.2573865023        3.0026150840       -1.0762768008
HB3         5.0035531847        4.3184382052       -2.2148747647
CG          6.3981407531        4.7550339771       -0.6542180315
CD1         6.9319534575        5.8636436451       -1.3430902496
HD1         6.4593423969        6.2186148234       -2.2510354984
CE1         8.0728916841        6.5230022235       -0.8453100989
HE1         8.4839244600        7.3761473327       -1.3669536764
CZ          8.6866910372        6.0732758593        0.3430456064
OH          9.7870587002        6.7134219576        0.8200111257
HH         10.1117115616        6.3004483954        1.6303067745
CE2         8.1569834536        4.9577220649        1.0283727231
HE2         8.6268935088        4.6105938916        1.9384390764
CD2         7.0131295275        4.3024611668        0.5299310272
HD2         6.6036540239        3.4520886294        1.0622239253
C           3.6947699995        6.0244249977       -0.3868727431
O           3.0707343645        6.6000968200       -1.2838696953
N           4.2932159508        6.6856182106        0.6083090974
H           4.7974006331        6.1453131431        1.2979793908
CA          4.4522628716        8.1418057279        0.6812546926
HA          4.4816802750        8.5456580949       -0.3322466035
CB          3.2513605405        8.7616994718        1.4135137098
HB2         2.3349822324        8.4737148362        0.8959222460
HB3         3.1989818526        8.3507216144        2.4231968709
CG          3.2975175764       10.2771236256        1.4922284017
CD1         3.7035954678       10.9143121280        2.6821584482
HD1         3.9675250708       10.3248436767        3.5520500323
CE1         3.7745473538       12.3200628520        2.7415784781
HE1         4.0871562179       12.8145885010        3.6510205268
CZ          3.4390715138       13.0937478303        1.6098784991
OH          3.5104292704       14.4499630863        1.6714701742
HH          3.2548843763       14.8552704837        0.8326927841
CE2         3.0307896844       12.4549216531        0.4184705980
HE2         2.7729061551       13.0457230340       -0.4499666195
CD2         2.9615025570       11.0486860127        0.3620509589
HD2         2.6501168870       10.5603406448       -0.5538096235
C           5.7765495249        8.5074519708        1.3757977215
O           6.1841312699        7.8456334105        2.3355091418
N           6.4420969871        9.5656576910        0.9064944702
H           6.0471531438       10.0805483357        0.1311468728
CA          7.7192289784       10.0496968301        1.4407028416
HA2         7.5830455701       10.3591109627        2.4774614659
HA3         8.4509207859        9.2413214472        1.4210309991
C           8.2899604382       11.2350021441        0.6533751881
O           7.7078320728       11.6763984598       -0.3426638049
N           9.4354976220       11.7551362180        1.0978182766
H           9.8620461789       11.3463079374        1.9189535407
CA         10.1342111549       12.8882798877        0.4795060183
HA2         9.4771441139       13.7586203876        0.4711353438
HA3        10.3818787810       12.6413937590       -0.5534654085
C          11.4291315375       13.2691046956        1.2073895001
O          11.7952064200       12.6525165781        2.2131050839
N          12.1247976262       14.2886483566        0.6985177609
H          11.7536523887       14.7554263911       -0.1178115768
CA         13.3799858693       14.8172364329        1.2500785503
HA         13.4042276603       14.6315308401        2.3253488922
CB         14.5662091630       14.0786127330        0.6046567569
HB2        14.4718560027       13.0115085956        0.8122050647
HB3        14.5145459662       14.2052712275       -0.4781949048
CG         15.9284053449       14.5408202969        1.0917941412
CD1        16.7057804592       15.4112400970        0.3006667972
HD1        16.3457423770       15.7324466109       -0.6693379735
CE1        17.9489279238       15.8751473238        0.7736558432
HE1        18.5483025534       16.5451742002        0.1729245168
CZ         18.4199812978       15.4681064340        2.0401612203
OH         19.6219326952       15.9155076469        2.4911134141
HH         19.8251396656       15.5599946597        3.3657869331
CE2        17.6435913982       14.5915591576        2.8298386491
HE2        18.0038713990       14.2766548287        3.7996989162
CD2        16.3992109443       14.1312345774        2.3550537672
HD2        15.8029160709       13.4628548932        2.9648907263
C          13.4960281588       16.3380077285        1.0363680185
O          12.9710758832       16.8769873517        0.0568793445
N          14.2032158338       17.0254423701        1.9382454739
H          14.6264185165       16.5126547450        2.6997050233
CA         14.5487986227       18.4482961391        1.8387566323
HA         14.6291429178       18.7197032687        0.7847722936
CB         13.4320251349       19.2936470804        2.4736912079
HB2        12.4837402417       19.0403984525        1.9969769009
HB3        13.3450135823       19.0318385909        3.5296322133
CG         13.6380473342       20.7922505898        2.3443172405
CD1        13.4005381506       21.4283288169        1.1096547124
HD1        13.0566454821       20.8510091483        0.2595877175
CE1        13.6083358290       22.8155292263        0.9779891243
HE1        13.4273873212       23.3091724870        0.0329581106
CZ         14.0550087762       23.5718732402        2.0827695516
OH         14.2548480793       24.9101493530        1.9509607801
HH         14.5585540406       25.3048122070        2.7787284728
CE2        14.2923487600       22.9342997234        3.3202152167
HE2        14.6353389760       23.5115343010        4.1680564260
CD2        14.0835805582       21.5466697333        3.4486292334
HD2        14.2705250858       21.0604357161        4.3986541786
C          15.9084218903       18.7305384398        2.5054828237
O          16.2528707613       18.1039696573        3.5129756574
N          16.6753346994       19.6814443375        1.9574838015
H          16.3113208157       20.1696428586        1.1506913642
CH3        17.9942224268       20.0760682208        2.4522280391
HH31       18.4190446430       20.8499603210        1.8103235807
HH32       18.6651927129       19.2145012031        2.4582708429
HH33       17.9113396731       20.4667200512        3.4683579731
         110
Energy of minimum      2=    -153.4314634     first found at step        9 after                 6896 function calls
HH31        0.8193615348        0.9931651624       -0.8953563969
CH3         0.9345607300        2.0614515794       -1.0727385316
HH32        0.1959257064        2.6100812548       -0.4902600882
HH33        0.7925367615        2.2731320102       -2.1314598853
C           2.3206551023        2.4964397641       -0.6584401556
O           3.1132919104        1.6755079930       -0.1995251667
N           2.6110132168        3.7859187452       -0.8194264024
H           1.8888157979        4.3873171211       -1.1903665851
CA          3.8910893250        4.4165152065       -0.4712296884
HA          4.3576231600        3.8542640388        0.3395074233
CB          4.8281058797        4.3714402754       -1.6925381224
HB2         5.0078779363        3.3291334493       -1.9606327307
HB3         4.3269998519        4.8435879831       -2.5394603990
CG          6.1695826361        5.0510677539       -1.4750445000
CD1         6.3905301634        6.3538885553       -1.9673432387
HD1         5.6163687437        6.8607496485       -2.5308122919
CE1         7.6129804299        7.0070130135       -1.7156993969
HE1         7.7862435049        8.0075205544       -2.0870172860
CZ          8.6213442539        6.3572738603       -0.9725778996
OH          9.7991218586        6.9919780263       -0.7315792487
HH         10.4022659557        6.4349641038       -0.2231739284
CE2         8.4031663528        5.0492078868       -0.4866963636
HE2         9.1753306621        4.5489947300        0.0817084516
CD2         7.1776306415        4.3998183808       -0.7368337508
HD2         7.0095224228        3.3995078648       -0.3557063055
C           3.6979928224        5.8645699726        0.0152356572
O           2.7794020262        6.5615567473       -0.4272773115
N           4.5892083634        6.3281408680        0.8964486178
H           5.3211885794        5.7014104072        1.2017072401
CA          4.7186590534        7.7288322472        1.3116605640
HA          4.3744810007        8.3718175598        0.4997134165
CB          3.8366483835        7.9915130981        2.5427587960
HB2         2.8058751967        7.7270034550        2.3016578953
HB3         4.1587536301        7.3403417894        3.3572108396
CG          3.8596482964        9.4336281973        3.0166846812
CD1         4.6439387253        9.8034583577        4.1281425954
HD1         5.2201962901        9.0551936992        4.6591978883
CE1         4.6869916005       11.1476698378        4.5484346785
HE1         5.2903175358       11.4301700433        5.4004087346
CZ          3.9428543788       12.1274995589        3.8554118515
OH          3.9800346698       13.4265744581        4.2544648678
HH          4.5520088372       13.5431919060        5.0241070255
CE2         3.1570031712       11.7557007956        2.7435341139
HE2         2.5891014206       12.5102956762        2.2167368930
CD2         3.1166782395       10.4109680838        2.3253576055
HD2         2.5139166835       10.1295430047        1.4700340339
C           6.1911770536        8.0741536848        1.5983014709
O           6.9314751291        7.2528799231        2.1484297871
N           6.6156354584        9.2890610395        1.2421846892
H           5.9568986605        9.9253210304        0.8138157476
CA          7.9843659153        9.7808352078        1.4306521458
HA2         8.2129163051        9.8134530338        2.4964079935
HA3         8.6855512332        9.0950138290        0.9539836892
C           8.2066990556       11.1803325538        0.8453974120
O           7.2971443820       11.7768165917        0.2600001671
N           9.4214301386       11.7100264137        1.0008877468
H          10.1225980569       11.1686679703        1.4893963207
CA          9.8249517340       13.0334773993        0.5108048206
HA2         9.1857693940       13.7959494394        0.9573240062
HA3         9.6950560291       13.0743502153       -0.5712220858
C          11.2838844486       13.3779965978        0.8340472101
O          11.9993456410       12.5851453868        1.4546586051
N          11.7267682928       14.5647671223        0.4123829355
H          11.0777495345       15.1671224881       -0.0754377410
CA         13.0821320870       15.0893319963        0.6290533866
HA         13.4920266314       14.6544965013        1.5423903003
CB         13.9795994764       14.6729835911       -0.5501286054
HB2        13.9925199817       13.5838410343       -0.6156396157
HB3        13.5428881402       15.0495114424       -1.4768375421
CG         15.4137108295       15.1617297311       -0.4453921076
CD1        15.8363052436       16.2824023564       -1.1892551724
HD1        15.1466723951       16.7828324495       -1.8583493043
CE1        17.1541193448       16.7621502560       -1.0567719650
HE1        17.4832664681       17.6229424024       -1.6222481100
CZ         18.0551372506       16.1207633183       -0.1801885250
OH         19.3270467250       16.5850524876       -0.0581450345
HH         19.8371292856       16.0560098680        0.5684853880
CE2        17.6331045578       14.9946514815        0.5603975587
HE2        18.3227533659       14.5003545037        1.2309572152
CD2        16.3134075636       14.5186426600        0.4276647065
HD2        15.9903362275       13.6576072617        1.0007636382
C          13.0757151684       16.6195856264        0.8027457473
O          12.2230573836       17.3126531551        0.2387408010
N          14.0397253976       17.1482381319        1.5625319470
H          14.7190886240       16.5208749202        1.9708861101
CA         14.2909186235       18.5837427807        1.7359299226
HA         13.9840967795       19.1083308000        0.8294706898
CB         13.4519379163       19.1136945312        2.9107508170
HB2        12.4028802478       18.8726020037        2.7318992100
HB3        13.7529867696       18.5971032350        3.8237836390
CG         13.5601912279       20.6129134554        3.1243361119
CD1        12.8827838611       21.4948241183        2.2590324964
HD1        12.2737553046       21.1026248230        1.4531550047
CE1        12.9947174954       22.8874755536        2.4402323779
HE1        12.4768354774       23.5691345884        1.7794379446
CZ         13.7858378395       23.4029794184        3.4892781216
OH         13.8915333444       24.7475920318        3.6599752504
HH         14.4597439511       24.9644456330        4.4105127260
CE2        14.4641163899       22.5189384209        4.3567526253
HE2        15.0715156835       22.9114866302        5.1608973798
CD2        14.3501289980       21.1265409406        4.1728295810
HD2        14.8752035848       20.4515258538        4.8380889708
C          15.7911202573       18.8555414367        1.9556535580
O          16.4872856270       18.0500932395        2.5824572427
N          16.2884252102       19.9939334640        1.4562227586
H          15.6489038740       20.6154750833        0.9803481894
CH3        17.6865286351       20.4105733574        1.5643092057
HH31       17.8353438930       21.3606879130        1.0480140434
HH32       18.3374670665       19.6581451540        1.1141242389
HH33       17.9606330559       20.5327031043        2.6140469678
         110
Energy of minimum      3=    -153.3017865     first found at step        1 after                 1305 function calls
HH31        2.2642606189        1.2042278229       -0.8769712298
CH3         2.2981186482        2.2570742841       -1.1532666023
HH32        1.4784482638        2.7876801524       -0.6711305172
HH33        2.2077283233        2.3539440241       -2.2341533279
C           3.6114836989        2.8552456427       -0.7067480747
O           4.4404037777        2.1579209817       -0.1241379064
N           3.7993042203        4.1450609803       -0.9789250784
H           3.0536249113        4.6395689730       -1.4482541587
CA          4.9946970309        4.9211125463       -0.6235834398
HA          5.4541381412        4.4832982019        0.2642833506
CB          6.0097894056        4.8477102565       -1.7793628978
HB2         6.2960103207        3.8058238556       -1.9315026542
HB3         5.5261126281        5.1895830257       -2.6961441328
CG          7.2705016835        5.6657309308       -1.5552996761
CD1         7.4097536299        6.9311137548       -2.1618745452
HD1         6.6331276032        7.3089330905       -2.8159660786
CE1         8.5521982388        7.7150994000       -1.9079703120
HE1         8.6622617976        8.6878236202       -2.3668883450
CZ          9.5622694064        7.2342160100       -1.0479148838
OH         10.6625883462        7.9948166008       -0.8052740826
HH         11.2771279299        7.5463080793       -0.2105430164
CE2         9.4266425007        5.9632844152       -0.4470344709
HE2        10.2003869361        5.5923369309        0.2111849031
CD2         8.2807094931        5.1828580747       -0.6999892518
HD2         8.1751139062        4.2117307893       -0.2310532580
C           4.6459678354        6.3845686552       -0.2957400505
O           3.7014798664        6.9489614292       -0.8568291216
N           5.4344157440        7.0094363244        0.5837991789
H           6.1962793697        6.4845189012        0.9909781196
CA          5.4150918854        8.4489888986        0.8638153576
HA          5.0704271132        8.9780113465       -0.0264026469
CB          4.4352329754        8.7441151591        2.0106913826
HB2         3.4490764526        8.3640974773        1.7392689735
HB3         4.7584828180        8.2051557045        2.9029583263
CG          4.3027114948       10.2204433312        2.3389060506
CD1         4.9779432515       10.7642036177        3.4504866563
HD1         5.5807310403       10.1257146566        4.0852870121
CE1         4.8773155164       12.1402764257        3.7363199489
HE1         5.3971182275       12.5563056928        4.5886070849
CZ          4.0982242632       12.9775475285        2.9080201946
OH          3.9970417409       14.3063338641        3.1769257197
HH          4.5053601957       14.5472692856        3.9622062813
CE2         3.4216371873       12.4316525239        1.7961310403
HE2         2.8263337226       13.0775891279        1.1654010030
CD2         3.5248838430       11.0555138353        1.5126056367
HD2         3.0057701094       10.6402856595        0.6569151085
C           6.8304427480        8.9541926306        1.1973867583
O           7.6013824732        8.2602918437        1.8677044955
N           7.1707713094       10.1640563598        0.7463990483
H           6.4889393299       10.6935650484        0.2201046301
CA          8.4766964073       10.7956136597        0.9619878682
HA2         8.6315056430       10.9495458733        2.0303858000
HA3         9.2640967988       10.1355443071        0.5965655522
C           8.6151001236       12.1481982366        0.2535344497
O           7.6976665977       12.6002537622       -0.4390951183
N           9.7667405919       12.8001063192        0.4240102281
H          10.4785906146       12.3743190008        1.0030809403
CA         10.0856067031       14.1030211031       -0.1720315084
HA2         9.3550300010       14.8418749802        0.1591028758
HA3        10.0238588552       14.0294593722       -1.2583561189
C          11.4849672145       14.6098205472        0.1975635483
O          12.2240725119       13.9485268021        0.9338094991
N          11.8502605599       15.7873924239       -0.3145655964
H          11.1849670589       16.2784724624       -0.8961594500
CA         13.1380565204       16.4532191950       -0.0747137151
HA         13.5240323269       16.1445602629        0.8984302260
CB         14.1417896303       16.0139473437       -1.1550889918
HB2        14.2379318527       14.9273969062       -1.1251023066
HB3        13.7430867527       16.2778267325       -2.1362456299
CG         15.5271852249       16.6172333225       -1.0045768385
CD1        15.9257352809       17.6921462448       -1.8253627307
HD1        15.2506928773       18.0793271103       -2.5792195495
CE1        17.2006122484       18.2704406855       -1.6656014537
HE1        17.5050389230       19.0944741541       -2.2963167791
CZ         18.0822628000       17.7723696686       -0.6813639995
OH         19.3172288888       18.3195179228       -0.5267357956
HH         19.4664121029       19.0383279890       -1.1541219703
CE2        17.6826140063       16.6952253347        0.1386571284
HE2        18.3628918547       16.3169004886        0.8892657065
CD2        16.4066896916       16.1199480751       -0.0227088790
HD2        16.1031946657       15.2938754842        0.6093967832
C          12.9853678277       17.9854040005       -0.0526396701
O          12.1162993534       18.5394342630       -0.7333241733
N          13.8386463425       18.6713589710        0.7138710231
H          14.5440776154       18.1539342143        1.2203741544
CA         13.9202162867       20.1351349108        0.7896748639
HA         13.6311458137       20.5557183253       -0.1749711389
CB         12.9380614825       20.6470840623        1.8571519188
HB2        11.9395440940       20.2724628820        1.6264107355
HB3        13.2227247788       20.2363410846        2.8274088086
CG         12.8597440091       22.1600634700        1.9568074520
CD1        13.4903983982       22.8362201833        3.0207126305
HD1        14.0255491528       22.2776830067        3.7792736680
CE1        13.4311055163       24.2417085769        3.0981320987
HE1        13.9140900973       24.7660552530        3.9112562128
CZ         12.7401446702       24.9762273854        2.1107272108
OH         12.6861821687       26.3324124224        2.1892339288
HH         12.1844208390       26.7088339882        1.4545649399
CE2        12.1078898720       24.2983011597        1.0453832959
HE2        11.5768416010       24.8588818903        0.2880578446
CD2        12.1689128809       22.8925120151        0.9708732673
HD2        11.6818644080       22.3741401621        0.1533128894
C          15.3589964868       20.5940061797        1.0936926717
O          16.0984360171       19.9059832157        1.8049966792
N          15.7537993554       21.7621634178        0.5718233506
H          15.0811824620       22.2805766251        0.0234322862
CH3        17.0762711291       22.3573684799        0.7637724455
HH31       17.8515406080       21.6667745682        0.4259305650
HH32       17.1562089274       23.2844949572        0.1932160535
HH33       17.2367480424       22.5788314848        1.8207698416
         110
Energy of minimum      4=    -153.0819266     first found at step       46 after                31534 function calls
HH31        1.0699102079        1.1362068663       -0.2602072990
CH3         1.1938450534        2.1639882909       -0.5982550460
HH32        0.4934710714        2.8091418897       -0.0699469533
HH33        1.0040457722        2.2215166824       -1.6690191206
C           2.6053689708        2.6224904408       -0.3163291828
O           3.4057830324        1.8593741507        0.2219824616
N           2.9086479573        3.8673311441       -0.6788119724
H           2.1791620547        4.4246234912       -1.1008569796
CA          4.2141527856        4.5124473614       -0.4859822136
HA          4.7107192732        4.0623907031        0.3753570788
CB          5.0876856699        4.2688026102       -1.7294796393
HB2         5.2179575198        3.1936886535       -1.8628975962
HB3         4.5617830750        4.6441863974       -2.6091367216
CG          6.4620266382        4.9125240158       -1.6647927413
CD1         6.7187680183        6.1065588022       -2.3695698615
HD1         5.9425565966        6.5559245401       -2.9774317625
CE1         7.9823690756        6.7235996150       -2.2818957996
HE1         8.1775026079        7.6387182006       -2.8241147142
CZ          8.9952108585        6.1453193324       -1.4859266990
OH         10.2194656540        6.7306671536       -1.4027326911
HH         10.2684194790        7.5274537012       -1.9458548605
CE2         8.7374667346        4.9495625790       -0.7815301587
HE2         9.5176366187        4.5107853421       -0.1748278533
CD2         7.4726352127        4.3351660827       -0.8708942236
HD2         7.2783532811        3.4181950805       -0.3273621216
C           4.0655459906        6.0190273501       -0.2056480464
O           3.1362738789        6.6633332706       -0.7024921357
N           4.9960504441        6.5854586524        0.5684589119
H           5.7404402807        5.9992491100        0.9207659014
CA          5.1170977771        8.0234509360        0.8336902130
HA          4.7493236466        8.5755986502       -0.0329173321
CB          4.2541004845        8.3982653475        2.0502834304
HB2         3.2232568257        8.0962006537        1.8588138070
HB3         4.6020229526        7.8369000114        2.9191715893
CG          4.2602090190        9.8807451362        2.3780310492
CD1         5.0402165947       10.3688561403        3.4460791026
HD1         5.6243752916        9.6841496596        4.0493107631
CE1         5.0691392980       11.7489419490        3.7287227155
HE1         5.6692888654       12.1221359185        4.5473830878
CZ          4.3148478118       12.6460989009        2.9411902753
OH          4.3381690773       13.9790460287        3.2075008117
HH          4.9085436783       14.1785657258        3.9611147423
CE2         3.5327610984       12.1559140415        1.8734237253
HE2         2.9567791361       12.8475905164        1.2740470697
CD2         3.5066454552       10.7755651304        1.5928234005
HD2         2.9066842875       10.4031104966        0.7709802130
C           6.5883462491        8.4187504130        1.0576364029
O           7.3694838731        7.6411710871        1.6145066596
N           6.9653411170        9.6319816968        0.6462060553
H           6.2744851303       10.2312375842        0.2146811834
CA          8.3132719087       10.1866720763        0.8086028840
HA2         8.5597834169       10.2284155634        1.8701254922
HA3         9.0372834109        9.5354806926        0.3178183810
C           8.4571032672       11.5967484771        0.2234988352
O           7.5319226990       12.1219995505       -0.4039286078
N           9.6217708025       12.2154301056        0.4263581475
H          10.3394245704       11.7296578553        0.9482450249
CA          9.9456503416       13.5645809866       -0.0528027476
HA2         9.2305159650       14.2771969570        0.3596126239
HA3         9.8627698310       13.5928517948       -1.1398386018
C          11.3577575546       14.0202244683        0.3345141657
O          12.1041472053       13.2836675007        0.9872271303
N          11.7257668097       15.2386465723       -0.0684547556
H          11.0544077846       15.7900649418       -0.5854080715
CA         13.0253748319       15.8661509805        0.2079275500
HA         13.4266159937       15.4622146619        1.1391216435
CB         14.0041158175       15.5234325121       -0.9295555166
HB2        14.1043529093       14.4387275110       -0.9932499721
HB3        13.5812945002       15.8671971942       -1.8752443077
CG         15.3899121030       16.1216093038       -0.7614097771
CD1        15.7570953703       17.2734472869       -1.4868555310
HD1        15.0612663113       17.7205296945       -2.1866054026
CE1        17.0265223833       17.8535688341       -1.2961776903
HE1        17.3128280503       18.7386376997       -1.8473101668
CZ         17.9345666773       17.2818416895       -0.3795573949
OH         19.1599373734       17.8430180798       -0.2013442302
HH         19.6810509865       17.3535994548        0.4479993115
CE2        17.5685098910       16.1246337232        0.3426468013
HE2        18.2638155174       15.6836662480        1.0438558120
CD2        16.2969289910       15.5480941202        0.1516318507
HD2        16.0163572231       14.6632361017        0.7106543872
C          12.8925797152       17.3908841279        0.3795188127
O          12.0147549870       18.0171172719       -0.2227479044
N          13.7778317883       17.9908496879        1.1810385694
H          14.4849128005       17.4170643075        1.6199917536
CA         13.9089334730       19.4410851421        1.3639850426
HA         13.6030956169       19.9425022259        0.4441782135
CB         12.9797947785       19.9015357255        2.4996039422
HB2        11.9616276302       19.5802568508        2.2743243725
HB3        13.2789757812       19.4076320822        3.4257118923
CG         12.9617827852       21.4041123502        2.7162458780
CD1        12.2572989020       22.2329361460        1.8206168663
HD1        11.7171032723       21.7966490936        0.9887418044
CE1        12.2526656318       23.6296304510        2.0051811456
HE1        11.7134746773       24.2706806846        1.3211944929
CZ         12.9538052963       24.2023816624        3.0879884751
OH         12.9471542631       25.5507237415        3.2618309301
HH         13.4627685259       25.8091654242        4.0367794249
CE2        13.6592250522       23.3714963575        3.9858273344
HE2        14.1978487777       23.8080104949        4.8158977042
CD2        13.6619146575       21.9749025331        3.7984508446
HD2        14.2075559996       21.3410247405        4.4872128717
C          15.3722314115       19.8278512896        1.6502208112
O          16.1001333271       19.0772528405        2.3082755293
N          15.8015031755       21.0026178036        1.1723826544
H          15.1375533654       21.5738831212        0.6678186982
CH3        17.1568526483       21.5261511400        1.3424000053
HH31       17.2543921393       22.4862253381        0.8323332841
HH32       17.8836356167       20.8275886017        0.9224805836
HH33       17.3735553613       21.6665597863        2.4032128124
         110
Energy of minimum      5=    -152.9588522     first found at step        0 after                  645 function calls
HH31        2.0583410447        1.2612466436        0.1463612555
CH3         2.1710231525        2.2219063984       -0.3540449339
HH32        1.3702541226        2.8914638885       -0.0436934745
HH33        2.1275401829        2.0789786662       -1.4327246123
C           3.5029943639        2.8314732178        0.0152614583
O           4.2623654561        2.2377439818        0.7792179493
N           3.7844901151        4.0151293662       -0.5257732227
H           3.0905578265        4.4323609097       -1.1301093842
CA          5.0136312878        4.7842625387       -0.2905122213
HA          5.4108608908        4.5297533936        0.6935957039
CB          6.0620508081        4.3992901539       -1.3494362577