         110
Energy of minimum      1=    -157.0194019     first found at step       84 after                70553 function calls
HH31        3.4422915830       10.9694125459        5.8205221757
CH3         2.8777288774       10.0869492774        5.5232544474
HH32        2.5887937890        9.5230413566        6.4089490093
HH33        1.9859266975       10.3928270403        4.9783626367
C           3.7364742270        9.2219609809        4.6307381467
O           4.0044433997        8.0683111240        4.9627146800
N           4.1651003534        9.7789719695        3.5001843904
H           3.9114850417       10.7404535645        3.3232589719
CA          5.0209732421        9.1246453250        2.5002892684
HA          5.6405331529        8.3797845037        3.0026971030
CB          4.1458837162        8.3919563892        1.4641665698
HB2         4.7896995949        7.7519003963        0.8590818052
HB3         3.4559753002        7.7292954979        1.9892357567
CG          3.3485348125        9.2926411594        0.5330775963
CD1         2.0903789616        9.7872081476        0.9318454571
HD1         1.6865878653        9.5219898556        1.9011852854
CE1         1.3554774573       10.6276919126        0.0725062096
HE1         0.3908642109       11.0115856958        0.3750517059
CZ          1.8756381539       10.9744846849       -1.1928022125
OH          1.1631101514       11.7861317634       -2.0185645045
HH          1.6299866065       11.9418155152       -2.8497258936
CE2         3.1324392480       10.4731442065       -1.5966684083
HE2         3.5309713877       10.7339369680       -2.5676582886
CD2         3.8643226141        9.6322433789       -0.7349559691
HD2         4.8255517517        9.2464334132       -1.0515366500
C           5.9730005295       10.1266535813        1.8195492293
O           5.8007403121       11.3459623778        1.9355039150
N           6.9723252660        9.6183152332        1.0910986637
H           7.0545287136        8.6133987730        1.0235963023
CA          7.9243248741       10.4211322984        0.3134366850
HA          7.5591829437       11.4467748196        0.2714600975
CB          9.2883414424       10.4518710563        1.0230297348
HB2         9.1257088155       10.4848424584        2.1019414026
HB3         9.8331447683        9.5314060097        0.8067739017
CG         10.1386702424       11.6523700255        0.6478003737
CD1        11.0391382508       11.5903880579       -0.4347224629
HD1        11.1522816284       10.6714085328       -0.9970147252
CE1        11.7923597617       12.7275072208       -0.7904319269
HE1        12.4816523304       12.6892799570       -1.6228350272
CZ         11.6499146886       13.9267780200       -0.0597929575
OH         12.3757254321       15.0214965609       -0.4018023753
HH         12.1672615650       15.7819759579        0.1695327161
CE2        10.7517214535       13.9872879891        1.0250297761
HE2        10.6337827295       14.9066563449        1.5809302696
CD2        10.0032155204       12.8490141096        1.3779796969
HD2         9.3148916167       12.8974822923        2.2115827908
C           8.0378027413        9.9236571515       -1.1375702349
O           7.9227992667        8.7248854219       -1.4078732815
N           8.2704901713       10.8457548901       -2.0722814600
H           8.3565300026       11.8101009979       -1.7807755855
CA          8.4324906002       10.5809135326       -3.5052220397
HA2         9.2306791902        9.8518952503       -3.6506158119
HA3         7.5103694701       10.1705351827       -3.9174931248
C           8.7827099643       11.8616278327       -4.2678665183
O           8.4117767458       12.9596293106       -3.8403117073
N           9.5299021358       11.7425701509       -5.3695340246
H           9.7995544756       10.8166237465       -5.6703154892
CA         10.1244101261       12.8945273911       -6.0599725947
HA2        10.6800634214       12.5566880507       -6.9348179332
HA3         9.3340971621       13.5673430722       -6.3954525027
C          11.0854717477       13.6520145349       -5.1353324148
O          12.0252919886       13.0609744428       -4.5960078597
N          10.8275836550       14.9424127488       -4.9109674586
H          10.0442514788       15.3619336968       -5.3923185919
CA         11.4631114577       15.7322729491       -3.8516492572
HA         11.7822018740       15.0595773631       -3.0544726843
CB         12.7131484296       16.4403668228       -4.3979483370
HB2        13.4166704189       15.6888402096       -4.7592641671
HB3        12.4283850850       17.0606152622       -5.2495240046
CG         13.4149037231       17.3067258013       -3.3667277623
CD1        13.1659288585       18.6934683939       -3.3192258178
HD1        12.4995606231       19.1509616543       -4.0407296991
CE1        13.7710523287       19.4861629762       -2.3243202738
HE1        13.5810667776       20.5497370111       -2.2803696024
CZ         14.6300865665       18.8940465949       -1.3740375395
OH         15.2105659457       19.6624031643       -0.4146326033
HH         15.7771000329       19.1365176738        0.1643274530
CE2        14.8839993935       17.5060857617       -1.4257470033
HE2        15.5400502959       17.0491930671       -0.6975963392
CD2        14.2755758487       16.7161078914       -2.4210980202
HD2        14.4588043290       15.6487978122       -2.4484833111
C          10.4877528001       16.7506552097       -3.2398414231
O           9.7685078313       17.4470496175       -3.9616290631
N          10.5138098922       16.8725325072       -1.9113060905
H          11.1249822756       16.2469088867       -1.4034765744
CA          9.9673183065       18.0025639034       -1.1518237609
HA         10.0726887767       18.8989813782       -1.7657711486
CB          8.4627082815       17.8131333671       -0.8737535694
HB2         8.0734795473       18.7532737010       -0.4800968854
HB3         7.9525786220       17.6491717529       -1.8239699164
CG          8.0622475984       16.7068869752        0.0922959995
CD1         7.5591777034       15.4828303726       -0.3958002694
HD1         7.5091890482       15.3068268486       -1.4633930771
CE1         7.0910882589       14.4986829447        0.4999588763
HE1         6.6819557661       13.5731686224        0.1235678050
CZ          7.1407193259       14.7302254337        1.8922760492
OH          6.6949741528       13.7948980280        2.7733231109
HH          6.3640102233       12.9887665701        2.3375921125
CE2         7.6549024601       15.9497060779        2.3800125782
HE2         7.6850758778       16.1251058492        3.4465003560
CD2         8.1040216160       16.9376058272        1.4827067039
HD2         8.4660269252       17.8826740743        1.8673511010
C          10.7736469451       18.2482010768        0.1387607446
O          11.4548346163       17.3455632892        0.6402740450
N          10.6970243851       19.4696432256        0.6805896155
H          10.1207870036       20.1571627639        0.2139518327
CH3        11.3986742881       19.8856212098        1.8952204963
HH31       11.1427238279       20.9178972142        2.1412330391
HH32       11.1159507798       19.2432019889        2.7316504727
HH33       12.4781622805       19.8161073913        1.7459422059
         110
Energy of minimum      2=    -156.7821565     first found at step       74 after                64199 function calls
HH31        3.7920809148        8.9885057486        6.2755861906
CH3         3.0292035211        8.4429454908        5.7222010733
HH32        2.7208950616        7.5674246893        6.2917436315
HH33        2.1697782950        9.0901956918        5.5539078648
C           3.5939621924        8.0070317618        4.3906069202
O           3.6483041626        6.8118764530        4.1052222720
N           4.0140244500        8.9750143655        3.5784936368
H           3.9430116044        9.9277957644        3.9071253370
CA          4.6051432873        8.7697119744        2.2496067980
HA          5.0887531572        7.7917670958        2.2210084406
CB          3.4887215496        8.7881231336        1.1891008380
HB2         2.7896339502        7.9770755555        1.3990572002
HB3         2.9356132291        9.7251358567        1.2749886679
CG          3.9836391952        8.6390586967       -0.2396231099
CD1         4.1109531796        9.7743411780       -1.0662771406
HD1         3.8244120212       10.7513853302       -0.6961587100
CE1         4.6252382153        9.6445836803       -2.3712372027
HE1         4.7293379945       10.5121741480       -3.0079344190
CZ          5.0116904258        8.3768000528       -2.8556268461
OH          5.5083982482        8.2567057505       -4.1153655219
HH          5.7252405735        7.3388517977       -4.3229262299
CE2         4.8761280778        7.2385365790       -2.0305884462
HE2         5.1701760633        6.2658390254       -2.4006243093
CD2         4.3646365589        7.3720622960       -0.7241920417
HD2         4.2695965650        6.4984905718       -0.0901738881
C           5.6763203028        9.8298687044        1.9338427589
O           5.5849637700       10.9739987382        2.3899246145
N           6.6709396101        9.4589159063        1.1219521030
H           6.6692307771        8.5089383436        0.7763830349
CA          7.6630661400       10.3632731633        0.5302426169
HA          7.2196738000       11.3553471917        0.4277474045
CB          8.8854084223       10.4712561412        1.4580334721
HB2         8.5358903985       10.6239609753        2.4805134758
HB3         9.4295954175        9.5253579787        1.4452849601
CG          9.8425382893       11.6023934811        1.1193421037
CD1        10.9047046176       11.3954656221        0.2155949356
HD1        11.0385164486       10.4281184571       -0.2531896991
CE1        11.8013009160       12.4437142932       -0.0744186141
HE1        12.6181184476       12.2897638043       -0.7661633088
CZ         11.6481395364       13.6991123686        0.5517330838
OH         12.5289348230       14.7005228361        0.2903770375
HH         12.3190574979       15.5027332762        0.8005266012
CE2        10.5835002959       13.9075067135        1.4543939265
HE2        10.4660413001       14.8661589052        1.9396972930
CD2         9.6805651875       12.8619682165        1.7308826911
HD2         8.8671982157       13.0237287279        2.4283003059
C           8.0644300367        9.8659759549       -0.8701627476
O           8.1902053588        8.6576577267       -1.0920467791
N           8.2868697364       10.7869152097       -1.8098301264
H           8.1863740381       11.7622233069       -1.5628546223
CA          8.6882558145       10.4917290743       -3.1900540509
HA2         9.4932699414        9.7557229295       -3.1835715661
HA3         7.8449073343       10.0712808064       -3.7384247930
C           9.1758538277       11.7412404229       -3.9290040471
O           8.8361317999       12.8662955451       -3.5487210257
N           9.9989599341       11.5582025392       -4.9663864751
H          10.2354938664       10.6118522709       -5.2290381759
CA         10.6982370777       12.6571354521       -5.6451707519
HA2        11.2820859373       12.2660960898       -6.4784885845
HA3         9.9683940048       13.3640243650       -6.0419753656
C          11.6477758394       13.3848305975       -4.6859167466
O          12.5189217939       12.7577246934       -4.0765438864
N          11.4530925104       14.6938348687       -4.5126804454
H          10.7211704257       15.1395188435       -5.0484937862
CA         12.0509672591       15.4757943885       -3.4257274687
HA         12.3366780198       14.7955202278       -2.6214390610
CB         13.3239902041       16.1844828384       -3.9110073922
HB2        14.0323258576       15.4355858669       -4.2685127613
HB3        13.0734770171       16.8320715800       -4.7528840035
CG         13.9960755762       17.0079939437       -2.8267752047
CD1        13.8408829332       18.4087193663       -2.8012300333
HD1        13.2728196967       18.9074626931       -3.5773989831
CE1        14.4124158201       19.1634000820       -1.7580386531
HE1        14.2945158433       20.2379475379       -1.7312618985
CZ         15.1412621134       18.5187956052       -0.7358274346
OH         15.6896252379       19.2510721465        0.2696173202
HH         16.1629316911       18.6902470273        0.8975198386
CE2        15.2982126564       17.1158074144       -0.7631376190
HE2        15.8544003880       16.6190591313        0.0200425951
CD2        14.7244695184       16.3637814710       -1.8072193522
HD2        14.8354902225       15.2861196283       -1.8185668705
C          11.0446968803       16.4786571249       -2.8391106341
O          10.2696671318       17.1021079638       -3.5699493990
N          11.0790157479       16.6406194903       -1.5158392319
H          11.7579806481       16.0943429314       -1.0020122122
CA         10.2869820768       17.6011547183       -0.7416744908
HA         10.1464474288       18.5055652654       -1.3360793403
CB          8.9067873770       16.9935701071       -0.4369850099
HB2         8.4265532264       16.7197440968       -1.3776273098
HB3         9.0407618856       16.0752357714        0.1361241310
CG          7.9696506333       17.9200862644        0.3163362477
CD1         7.7263577358       17.7212938944        1.6906165067
HD1         8.1983135586       16.8979048737        2.2128011325
CE1         6.8716363896       18.5949250931        2.3918022313
HE1         6.6867581121       18.4419326317        3.4463520294
CZ          6.2565112131       19.6723071419        1.7173243147
OH          5.4311956015       20.5198060045        2.3872894450
HH          5.3512149779       20.2725485334        3.3176687803
CE2         6.4999186902       19.8694833235        0.3411258454
HE2         6.0250389478       20.6954234957       -0.1705390347
CD2         7.3548968672       18.9942277140       -0.3572232642
HD2         7.5378065920       19.1478502701       -1.4141535954
C          11.0207820776       17.9883662890        0.5568605839
O          11.7319253567       17.1619616772        1.1411466395
N          10.8410648471       19.2316421707        1.0184085175
H          10.2228201334       19.8401944833        0.4992612223
CH3        11.4562719107       19.7659074265        2.2332940405
HH31       11.1526070660       20.8038279326        2.3816321819
HH32       11.1441588909       19.1800158424        3.1001412346
HH33       12.5443861628       19.7246638137        2.1518391649
         110
Energy of minimum      3=    -155.2751168     first found at step       81 after                68620 function calls
HH31        3.4461735802        9.8738648411        5.8751623879
CH3         2.8558715829        9.0798737616        5.4202569601
HH32        2.5856847201        8.3458920976        6.1780180160
HH33        1.9525567762        9.5034137597        4.9838686650
C           3.6686569757        8.4119534936        4.3360893890
O           3.9275879521        7.2118052247        4.4101678585
N           4.0682993008        9.1885488855        3.3314838025
H           3.8253511530       10.1683073490        3.3680095371
CA          4.8762840689        8.7489621485        2.1850634463
HA          5.4999118040        7.9096837313        2.4978248834
CB          3.9526075911        8.2545110732        1.0547094772
HB2         4.5669898160        7.7864168579        0.2841834741
HB3         3.3023440682        7.4722678123        1.4496796931
CG          3.0897584229        9.3237502371        0.4021285912
CD1         1.8345988631        9.6532280288        0.9525059546
HD1         1.4824699225        9.1439256406        1.8411536452
CE1         1.0355145575       10.6448709332        0.3500073134
HE1         0.0729379841       10.9025616487        0.7700754626
CZ          1.4879680820       11.3093779169       -0.8099326964
OH          0.7136387043       12.2656808263       -1.3881095332
HH          1.1386036660       12.6378214334       -2.1717117599
CE2         2.7419118658       10.9749065371       -1.3664961136
HE2         3.0890783633       11.4802140412       -2.2574935542
CD2         3.5384454219        9.9825500588       -0.7612409066
HD2         4.4977185076        9.7271185710       -1.1943407585
C           5.8239210462        9.8597059227        1.6921907628
O           5.6672105280       11.0320783497        2.0491191470
N           6.8074088859        9.4932955431        0.8644501689
H           6.8742228335        8.5187473116        0.6044605251
CA          7.7812006909       10.4068592457        0.2506990307
HA          7.3410068330       11.4034162609        0.1840621849
CB          9.0299556280       10.4875399630        1.1467884140
HB2         8.7084545998       10.5930960266        2.1844579473
HB3         9.5787857281        9.5466235433        1.0790589988
CG          9.9722297830       11.6398508608        0.8393883519
CD1        11.0595316736       11.4618386488       -0.0402850202
HD1        11.2194993501       10.5036382295       -0.5196180344
CE1        11.9495459821       12.5261880059       -0.2892185826
HE1        12.7869265132       12.3939054153       -0.9605928576
CZ         11.7647128855       13.7682535866        0.3548323849
OH         12.6430494255       14.7826794624        0.1393878746
HH         12.4123028320       15.5713358044        0.6614107339
CE2        10.6727707275       13.9487730010        1.2304860721
HE2        10.5305680178       14.8974168551        1.7287972159
CD2         9.7767846544       12.8872700044        1.4657751003
HD2         8.9446564681       13.0260004594        2.1458492686
C           8.1404118256        9.9491534184       -1.1751254931
O           8.0992281643        8.7527698795       -1.4793096034
N           8.5042869200       10.8881092866       -2.0506256586
H           8.5257613365       11.8511108653       -1.7423626440
CA          8.9145346232       10.6252272998       -3.4351287781
HA2         9.6927068067        9.8608831618       -3.4409941162
HA3         8.0657454442       10.2523407499       -4.0088661588
C           9.4557274393       11.8793787671       -4.1280220196
O           9.1425359103       13.0027453368       -3.7213108896
N          10.2896264353       11.7002355836       -5.1576748131
H          10.5033343419       10.7546394490       -5.4417633620
CA         11.0130141391       12.7973957159       -5.8142399410
HA2        11.6158828675       12.4053381757       -6.6334221031
HA3        10.2969734135       13.5084866963       -6.2282762726
C          11.9417077533       13.5200000164       -4.8310423703
O          12.7898619264       12.8880068810       -4.1948298935
N          11.7522129770       14.8311158872       -4.6682310908
H          11.0409537152       15.2804256268       -5.2282486379
CA         12.3156415307       15.6098667706       -3.5611014179
HA         12.5769137331       14.9269558644       -2.7508210587
CB         13.6026949184       16.3209277597       -4.0032035641
HB2        14.3218401421       15.5738597224       -4.3424963028
HB3        13.3782851512       16.9731002781       -4.8488881631
CG         14.2403158432       17.1381678452       -2.8937659678
CD1        14.0856386782       18.5388820472       -2.8659413440
HD1        13.5426637157       19.0421522662       -3.6570087816
CE1        14.6251121758       19.2876642944       -1.8016360650
HE1        14.5074946485       20.3622056560       -1.7731446055
CZ         15.3210588637       18.6371071939       -0.7604350398
OH         15.8383709850       19.3636915468        0.2653920497
HH         16.2909951739       18.7991159849        0.9050957106
CE2        15.4772183643       17.2340697269       -0.7897846433
HE2        16.0081854742       16.7327906748        0.0078901130
CD2        14.9356389855       16.4879571448       -1.8550724883
HD2        15.0460098127       15.4102452136       -1.8685003278
C          11.2897372652       16.6088528221       -3.0027120572
O          10.5453008394       17.2431098431       -3.7556975676
N          11.2717789456       16.7534042468       -1.6772861455
H          11.9288136603       16.1982972491       -1.1448339781
CA         10.4455183621       17.6984849698       -0.9202314750
HA         10.3267897261       18.6129716470       -1.5038710304
CB          9.0562233583       17.0815540098       -0.6829747041
HB2         8.6158236500       16.8228197082       -1.6470875921
HB3         9.1702486622       16.1536772142       -0.1208384138
CG          8.0855835321       17.9918073251        0.0474170287
CD1         7.7868567562       17.7679245914        1.4068280064
HD1         8.2400851909       16.9368194054        1.9333741147
CE1         6.9008148335       18.6263839506        2.0875772902
HE1         6.6733986699       18.4541364507        3.1307800041
CZ          6.3098427548       19.7136957223        1.4074631126
OH          5.4545618682       20.5466738358        2.0577655697
HH          5.3374028752       20.2827124967        2.9795748605
CE2         6.6087816997       19.9360098052        0.0461173645
HE2         6.1522111148       20.7694680170       -0.4700003174
CD2         7.4949747797       19.0758779856       -0.6318137257
HD2         7.7205340433       19.2487900712       -1.6774608832
C          11.1235085425       18.0632590220        0.4145987843
O          11.8115557132       17.2273726520        1.0130007853
N          10.9214537546       19.2975082909        0.8908957921
H          10.3241842282       19.9144589928        0.3572929450
CH3        11.4827131665       19.8100524126        2.1407653882
HH31       11.1713212668       20.8448792658        2.2946187095
HH32       11.1342326330       19.2082717116        2.9825115600
HH33       12.5733887784       19.7711131046        2.1058604253
         110
Energy of minimum      4=    -154.7485188     first found at step       76 after                65488 function calls
HH31        3.5354898319        9.0991841193        6.1629364785
CH3         2.7563190843        8.6016801947        5.5874051307
HH32        2.3854974974        7.7411466500        6.1423309179
HH33        1.9391535194        9.2978431951        5.4044709922
C           3.3269797495        8.1436566886        4.2657868485
O           3.3203329726        6.9493566260        3.9718497831
N           3.8203607859        9.0918421307        3.4717524256
H           3.7955174646       10.0448178794        3.8064945810
CA          4.4301871533        8.8625346748        2.1553103936
HA          4.8582303258        7.8589400727        2.1297889547
CB          3.3420432642        8.9517408580        1.0692423326
HB2         2.5952931331        8.1778725967        1.2538753978
HB3         2.8385474257        9.9165658337        1.1523653788
CG          3.8625616699        8.7901876625       -0.3490015802
CD1         4.0725803836        9.9252699170       -1.1588950760
HD1         3.8307942857       10.9127105765       -0.7844403471
CE1         4.6121769967        9.7810499977       -2.4520509801
HE1         4.7799722879       10.6482125329       -3.0756254851
CZ          4.9411947592        8.4990878676       -2.9414998565
OH          5.4630683250        8.3650989861       -4.1896143856
HH          5.6354840681        7.4390093729       -4.4022242358
CE2         4.7224228854        7.3614457590       -2.1336147735
HE2         4.9723133636        6.3779772914       -2.5076173748
CD2         4.1858343660        7.5092579290       -0.8388614075
HD2         4.0272970441        6.6357082957       -0.2176373802
C           5.5667844171        9.8623141271        1.8730761758
O           5.5284515051       11.0074390570        2.3341703104
N           6.5584691858        9.4403761433        1.0828344155
H           6.5120688430        8.4936618443        0.7315817535
CA          7.6113421002       10.2915253259        0.5187115353
HA          7.2243615563       11.3058541646        0.4061572240
CB          8.8139033654       10.3376117361        1.4764454450
HB2         8.4681959267       10.6603325993        2.4598043416
HB3         9.2172889361        9.3298576665        1.5898380666
CG          9.9287030466       11.2702848774        1.0333820979
CD1        11.0098285731       10.7733237672        0.2770209585
HD1        11.0518643732        9.7225274427        0.0165332738
CE1        12.0359875802       11.6403212946       -0.1479669895
HE1        12.8612965346       11.2575367767       -0.7327299013
CZ         11.9881111200       13.0095899268        0.1926142124
OH         12.9805726724       13.8495658113       -0.2028721977
HH         13.6693580073       13.3704723336       -0.6796434173
CE2        10.9104807271       13.5048469236        0.9560980883
HE2        10.8903243523       14.5500881992        1.2270848179
CD2         9.8796752680       12.6378885386        1.3702046647
HD2         9.0530721244       13.0228067932        1.9552293161
C           8.0293129160        9.7839794079       -0.8732629609
O           8.0907869595        8.5734208535       -1.1089553345
N           8.3465185033       10.7051623772       -1.7850946278
H           8.2868988970       11.6796558145       -1.5224496735
CA          8.8296045340       10.4190064233       -3.1396614048
HA2         9.6368459765        9.6872401399       -3.0887268069
HA3         8.0224523595        9.9992924800       -3.7406299495
C           9.3525973464       11.6798686928       -3.8349983314
O           8.9579229610       12.7966204066       -3.4847713797
N          10.2601805924       11.5180120806       -4.8026342707
H          10.5422017468       10.5782603591       -5.0431109578
CA         10.9572579361       12.6354235264       -5.4529591725
HA2        11.5989961537       12.2561231975       -6.2482784482
HA3        10.2255567832       13.3090932108       -5.9008865996
C          11.8284017200       13.4147697767       -4.4596061642
O          12.7127943675       12.8383290085       -3.8200750924
N          11.5613449718       14.7140210781       -4.3068114308
H          10.8141793221       15.1107692149       -4.8594377338
CA         12.1404662400       15.5668888435       -3.2627520271
HA         12.5682961677       14.9352779797       -2.4860022400
CB         13.2768933121       16.4180535088       -3.8487702719
HB2        14.0399359036       15.7544389432       -4.2585988559
HB3        12.8854255458       17.0172595393       -4.6726269862
CG         13.9288358780       17.3379635097       -2.8317180949
CD1        13.5439888722       18.6917656692       -2.7525414256
HD1        12.8017960610       19.0867264882       -3.4359250308
CE1        14.1144516465       19.5324209456       -1.7767344912
HE1        13.8209401561       20.5709286994       -1.7090250635
CZ         15.0736857006       19.0212794514       -0.8766189220
OH         15.6212272436       19.8359278805        0.0639158101
HH         16.2618483894       19.3630648052        0.6106551830
CE2        15.4618588998       17.6660355799       -0.9588040395
HE2        16.1965632055       17.2721327203       -0.2698811278
CD2        14.8876621880       16.8272608970       -1.9346222477
HD2        15.1811237101       15.7860127144       -1.9905638819
C          11.0669593534       16.4472252716       -2.6030670796
O          10.2141172878       17.0148533288       -3.2925684958
N          11.1257137315       16.5850976477       -1.2753195250
H          11.8553389606       16.0926514911       -0.7756126675
CA         10.2817402131       17.4917717633       -0.4874487720
HA         10.0606061490       18.3746375037       -1.0895137939
CB          8.9523908281       16.7951312127       -0.1461415510
HB2         8.4869009432       16.4505690086       -1.0707482047
HB3         9.1556912981       15.9128025470        0.4605022674
CG          7.9532677506       17.6780154513        0.5795649040
CD1         7.7333008413       17.5148276058        1.9624227700
HD1         8.2691361427       16.7498852824        2.5114037374
CE1         6.8197606364       18.3488481739        2.6371881616
HE1         6.6529833211       18.2233160878        3.6983522722
CZ          6.1221134938       19.3507050205        1.9275272280
OH          5.2396902659       20.1596868267        2.5718402532
HH          5.1836488882       19.9431269431        3.5115754792
CE2         6.3425087438       19.5124396554        0.5428488686
HE2         5.8045540350       20.2805451829        0.0042392851
CD2         7.2564272734       18.6768894351       -0.1289695081
HD2         7.4216913153       18.8028196884       -1.1924457878
C          11.0118005536       17.9634246130        0.7843616160
O          11.8322706400       17.2298675724        1.3450227406
N          10.7085700813       19.1819411292        1.2491951093
H          10.0055076990       19.7107990569        0.7511562203
CH3        11.2986849463       19.7918226541        2.4407869566
HH31       10.8839412487       20.7896373736        2.5952161860
HH32       11.0837477257       19.1808883424        3.3197913244
HH33       12.3811420514       19.8737800764        2.3231929956
         110
Energy of minimum      5=    -154.5158540     first found at step       75 after                64824 function calls
HH31        3.9238537585        9.1217622333        5.7380239556
CH3         3.3876620714        8.2706775790        5.3209801035
HH32        3.3778935795        7.4556503443        6.0431315177
HH33        2.3650777555        8.5635896881        5.0879684044
C           4.0763937516        7.8165960183        4.0552636054
O           4.5212527794        6.6729696422        3.9741777910
N           4.1725100399        8.7176946656        3.0789853796
H           3.8115018670        9.6429830662        3.2603547701
CA          4.7703790186        8.4819721181        1.7562482294
HA          5.3651855207        7.5677055491        1.7879684214
CB          3.6598374307        8.2919154315        0.7076748749