         110
Energy of minimum      1=    -153.7695266     first found at step       38 after                26481 function calls
HH31       -0.7933814071        3.5072757355        2.2485616127
CH3        -0.4228442636        4.1837167180        1.4797311429
HH32       -0.9932209888        5.1110577318        1.5034851610
HH33       -0.5283091697        3.7172586383        0.5013844382
C           1.0350973326        4.4874989652        1.7331599703
O           1.6103973412        3.9878894434        2.6986654671
N           1.6299977465        5.3060415259        0.8676618704
H           1.0705946136        5.6796061372        0.1137621410
CA          3.0318644681        5.7394037879        0.9364266686
HA          3.3612286470        5.7177793251        1.9766594789
CB          3.9043259655        4.7591713595        0.1324671471
HB2         3.7929356006        3.7598874092        0.5563619235
HB3         3.5363355910        4.7195590295       -0.8943207876
CG          5.3825485533        5.1077961881        0.1138321083
CD1         5.9512142967        5.7229332300       -1.0204151490
HD1         5.3393482850        5.9289731830       -1.8905254566
CE1         7.3147910866        6.0776026638       -1.0253609066
HE1         7.7492935526        6.5484590627       -1.8965846801
CZ          8.1149854859        5.8164120199        0.1083926390
OH          9.4333575696        6.1484798012        0.1081453858
HH          9.6977139567        6.5467573908       -0.7308197945
CE2         7.5449682723        5.1994930911        1.2428153888
HE2         8.1632646057        5.0006494212        2.1073732673
CD2         6.1808553436        4.8468383228        1.2449920683
HD2         5.7467308711        4.3749155883        2.1184012927
C           3.2048603504        7.1797688349        0.4207056231
O           2.4729451829        7.6211797029       -0.4709393135
N           4.1886842752        7.9037772837        0.9628128577
H           4.7638432347        7.4676396283        1.6705086056
CA          4.6021083259        9.2389696793        0.5165145273
HA          4.4201441613        9.3250705247       -0.5561408751
CB          3.7609478044       10.3086954056        1.2360757421
HB2         2.7109144585       10.1696504173        0.9744992922
HB3         3.8523197078       10.1643632159        2.3140186129
CG          4.1581768492       11.7329330181        0.8907438660
CD1         4.8951252231       12.5024120139        1.8130360942
HD1         5.1386204285       12.0977857650        2.7880364302
CE1         5.3408230837       13.7905700525        1.4605852215
HE1         5.9165816681       14.3785734961        2.1617610046
CZ          5.0549410550       14.3129338061        0.1812379407
OH          5.5259012423       15.5405301275       -0.1687426578
HH          5.2259236930       15.7900450285       -1.0528475554
CE2         4.2982317965       13.5503290945       -0.7353599298
HE2         4.0751661408       13.9493529283       -1.7155060066
CD2         3.8512075357       12.2622034448       -0.3788513525
HD2         3.2844193569       11.6722451419       -1.0893625680
C           6.1081479325        9.4640532197        0.7543583092
O           6.6780900581        8.9506314111        1.7218768797
N           6.7466626014       10.2530390912       -0.1137267939
H           6.2140582769       10.6581326719       -0.8719030022
CA          8.1550122721       10.6508723208       -0.0206049853
HA2         8.3286173161       11.1404832668        0.9383646341
HA3         8.7912559361        9.7670182625       -0.0733711808
C           8.5668443198       11.6154778210       -1.1401254865
O           7.8091916995       11.8410152673       -2.0894906874
N           9.7678822062       12.1883105361       -1.0384194511
H          10.3471731668       11.9597292793       -0.2417973323
CA         10.3023086198       13.1583417921       -2.0015809192
HA2        10.4567513191       12.6707427065       -2.9645432883
HA3         9.5741845389       13.9584855686       -2.1416227888
C          11.6292299215       13.7876598596       -1.5628061149
O          12.2962505431       13.2893053415       -0.6509803833
N          12.0013387044       14.8939069105       -2.2106844018
H          11.3883090795       15.2417572352       -2.9347224686
CA         13.1723765121       15.7206996638       -1.8890488664
HA         13.5685549729       15.4142341078       -0.9196969084
CB         14.2688014261       15.4930536718       -2.9402084368
HB2        14.4960901468       14.4266443686       -2.9847902377
HB3        13.8885904702       15.7874486862       -3.9199036036
CG         15.5579976781       16.2425635626       -2.6576436995
CD1        15.8635780124       17.4221065720       -3.3664090569
HD1        15.1853798673       17.7902475351       -4.1269718324
CE1        17.0494535717       18.1293795296       -3.0856353007
HE1        17.2825516666       19.0344524696       -3.6297417122
CZ         17.9339924393       17.6568032694       -2.0914165961
OH         19.0820412575       18.3316417155       -1.8174288024
HH         19.1694722335       19.1182489632       -2.3711408774
CE2        17.6272224375       16.4749198270       -1.3833367086
HE2        18.3092911774       16.1168167828       -0.6244077082
CD2        16.4406701596       15.7701129969       -1.6662333556
HD2        16.2086654770       14.8632408628       -1.1204349364
C          12.7763803319       17.2035709510       -1.7764347063
O          11.8727040182       17.6632538933       -2.4826543819
N          13.4333722470       17.9452293016       -0.8781301130
H          14.2256705701       17.5344741913       -0.4059467018
CA         12.9891260304       19.2651693999       -0.4060705136
HA         12.3065741752       19.6971324792       -1.1395857845
CB         12.2207977350       19.1002800828        0.9207181335
HB2        12.9356414400       18.8647912929        1.7112006066
HB3        11.7580934213       20.0539063509        1.1795441580
CG         11.1456220427       18.0232030817        0.9073088474
CD1         9.8699475752       18.2963372144        0.3736333485
HD1         9.6413367364       19.2864384642       -0.0014623917
CE1         8.8956426664       17.2789872635        0.3109507246
HE1         7.9186135808       17.4874778788       -0.1030438206
CZ          9.2008390710       15.9811045472        0.7761319975
OH          8.2777242089       14.9876807934        0.7054779569
HH          7.4309271755       15.3024651428        0.3550507160
CE2        10.4746407302       15.7103554033        1.3176047004
HE2        10.7021513628       14.7149093732        1.6726436470
CD2        11.4417633459       16.7309396372        1.3881946301
HD2        12.4209789334       16.5152987526        1.7975241099
C          14.1632117314       20.2442537892       -0.2295697509
O          15.2903640066       19.8331248639        0.0637121355
N          13.8958373044       21.5478502339       -0.3770335380
H          12.9460163622       21.8080321279       -0.6067327244
CH3        14.8781912587       22.6226984112       -0.2316209194
HH31       15.6899316126       22.4891467219       -0.9497072216
HH32       14.4049282520       23.5900193396       -0.4106888644
HH33       15.2955066454       22.6158956340        0.7774237919
         110
Energy of minimum      2=    -153.3083418     first found at step       22 after                15629 function calls
HH31        1.1206875254        2.2490798144        3.4118217778
CH3         1.1165026274        3.3370778756        3.3647792889
HH32        1.5816988022        3.7431683008        4.2617395624
HH33        0.0906663430        3.6954648006        3.2934581976
C           1.8902345049        3.7938594156        2.1503685204
O           2.4060899183        2.9664575971        1.4006514106
N           1.9709547864        5.1089767308        1.9581203197
H           1.5276264295        5.7111493885        2.6376049183
CA          2.6830882795        5.7622602256        0.8518005167
HA          3.4957329441        5.1142870956        0.5189870711
CB          1.7123099088        5.9638089103       -0.3249976190
HB2         1.3208557775        4.9915545309       -0.6286113352
HB3         0.8657230714        6.5634559742        0.0140930607
CG          2.3331372176        6.6281379325       -1.5414386621
CD1         2.1026535228        7.9954347898       -1.7974717170
HD1         1.4652853706        8.5716475175       -1.1374269250
CE1         2.7040172243        8.6193181096       -2.9084849860
HE1         2.5256105558        9.6679250081       -3.1037640701
CZ          3.5394880998        7.8736901401       -3.7687824764
OH          4.1168917246        8.4666600937       -4.8474112602
HH          3.8702352098        9.3979991640       -4.9130584607
CE2         3.7680733267        6.5045914048       -3.5124191298
HE2         4.4074348318        5.9385066404       -4.1757879843
CD2         3.1663646310        5.8839718030       -2.3998404014
HD2         3.3456264595        4.8332000334       -2.2054989295
C           3.3022929129        7.1017613260        1.2911914636
O           2.7599916428        7.7895542802        2.1621084426
N           4.4250388635        7.4834209506        0.6747827926
H           4.7962335569        6.8841758512       -0.0498641926
CA          5.0973467757        8.7743912373        0.8631305575
HA          4.3471537081        9.5329609096        1.0930296851
CB          6.0734508078        8.6801454701        2.0497031971
HB2         5.5230694209        8.3622465973        2.9365540148
HB3         6.8195963257        7.9129504642        1.8357294233
CG          6.7765459211        9.9871083738        2.3726459148
CD1         8.1249692082       10.1800543456        2.0083418575
HD1         8.6769453954        9.3834734883        1.5241210303
CE1         8.7554909243       11.4147057612        2.2607748582
HE1         9.7879837898       11.5694595069        1.9801461028
CZ          8.0379558839       12.4608792801        2.8792696254
OH          8.6431879679       13.6543612024        3.1194028030
HH          8.0266397663       14.2695350662        3.5380876446
CE2         6.6895151200       12.2646287488        3.2495657715
HE2         6.1381248962       13.0641648543        3.7253620142
CD2         6.0619866383       11.0293312356        2.9955643199
HD2         5.0254101407       10.8835267756        3.2757550310
C           5.8316130191        9.2128311206       -0.4180400867
O           6.2754128886        8.3738496877       -1.2079336972
N           5.9917728887       10.5250444600       -0.6089833592
H           5.6266842694       11.1585981553        0.0896669242
CA          6.7544319503       11.1248361946       -1.7078022578
HA2         7.6958000580       10.5869230393       -1.8278824398
HA3         6.1922563392       11.0380592757       -2.6377349691
C           7.0680906407       12.6057528531       -1.4656011832
O           6.3702384296       13.2850591053       -0.7068203920
N           8.1272186788       13.1070880312       -2.1029663561
H           8.6528837941       12.4944926820       -2.7126545871
CA          8.6191648150       14.4827140161       -1.9634930600
HA2         7.8893273810       15.1772811685       -2.3803675548
HA3         8.7453443921       14.7161927407       -0.9055130892
C           9.9605789336       14.7063484793       -2.6717915784
O          10.4274404360       13.8446291072       -3.4237476183
N          10.5892352201       15.8578973241       -2.4245921755
H          10.1524547590       16.5119790092       -1.7897846547
CA         11.9063337317       16.2275564411       -2.9601066191
HA         12.4499965137       15.3188501331       -3.2244615639
CB         11.7256458928       17.0614259283       -4.2390028318
HB2        11.1516008263       16.4787888798       -4.9613595078
HB3        11.1429157109       17.9533563719       -4.0022515874
CG         13.0316143097       17.4800296829       -4.8906802469
CD1        13.5348334469       18.7825356662       -4.6968960103
HD1        12.9808263793       19.4962620220       -4.0990316957
CE1        14.7643161654       19.1577197200       -5.2731580579
HE1        15.1564388936       20.1546607567       -5.1264921913
CZ         15.4950497456       18.2302534184       -6.0462250019
OH         16.6795947776       18.5976192184       -6.6032673369
HH         17.0731723254       17.8724771749       -7.1054471645
CE2        14.9886824057       16.9266237380       -6.2432015164
HE2        15.5461948380       16.2149690558       -6.8367944048
CD2        13.7592198670       16.5539350827       -5.6641978906
HD2        13.3744037154       15.5520397346       -5.8135167740
C          12.7470118547       16.9838152308       -1.9168104421
O          12.2151328371       17.7955395871       -1.1532726884
N          14.0594702509       16.7293490662       -1.9054556365
H          14.4245153924       16.0971575464       -2.6038008411
CA         15.0412997521       17.3283037625       -0.9920661725
HA         14.6514179187       18.2729124196       -0.6092005774
CB         15.2907778203       16.3867610688        0.2004930835
HB2        15.6428391991       15.4240881418       -0.1745288558
HB3        16.0935670377       16.8042029993        0.8105150773
CG         14.0870890777       16.1597957155        1.1003032372
CD1        13.7963729769       17.0816619622        2.1256656344
HD1        14.4307903091       17.9472529451        2.2727900673
CE1        12.6790624506       16.8820963867        2.9596988424
HE1        12.4505387636       17.5872831254        3.7469651401
CZ         11.8447373214       15.7603561615        2.7680869573
OH         10.7655768805       15.5807436663        3.5741271176
HH         10.2573720144       14.7924841779        3.3272439902
CE2        12.1364785658       14.8334759268        1.7433802155
HE2        11.4988420297       13.9723200254        1.5980040552
CD2        13.2592603073       15.0328522760        0.9145786032
HD2        13.4828091227       14.3208156681        0.1296457160
C          16.3635779251       17.6263240555       -1.7211735347
O          16.7574281568       16.8936488573       -2.6344117861
N          17.0675477166       18.6847724166       -1.3010368927
H          16.6854193062       19.2305145318       -0.5403757935
CH3        18.3456732927       19.1140382868       -1.8696900266
HH31       18.2288733991       19.3309431770       -2.9335792893
HH32       18.6980925550       20.0144774141       -1.3630235240
HH33       19.0929094524       18.3268353725       -1.7503476530
         110
Energy of minimum      3=    -153.2478295     first found at step       46 after                32292 function calls
HH31        1.3403108652        2.1673834144        3.3670856257
CH3         1.2372920889        3.2266001764        3.1359638772
HH32        1.3934215274        3.8143463519        4.0393091320
HH33        0.2394456967        3.4195644048        2.7448944263
C           2.2639818157        3.6205187760        2.1001838601
O           3.0484782188        2.7820203708        1.6594324639
N           2.2586976916        4.8947874425        1.7138934365
H           1.5860300888        5.5134754360        2.1447005010
CA          3.1765523249        5.4871195651        0.7317806365
HA          4.1115825506        4.9243212297        0.7330695007
CB          2.5515838852        5.3834839722       -0.6705543695
HB2         2.3605567286        4.3325926621       -0.8937882006
HB3         1.5875497154        5.8952351126       -0.6664340950
CG          3.4115802343        5.9578108255       -1.7827707867
CD1         3.1216334319        7.2295251789       -2.3183506967
HD1         2.2718247872        7.7925302719       -1.9512423152
CE1         3.9381348919        7.7757670118       -3.3283835696
HE1         3.7139132841        8.7509845309       -3.7385238383
CZ          5.0497246321        7.0479152615       -3.8065984313
OH          5.8375870337        7.5648340329       -4.7866588290
HH          5.5245670235        8.4330796023       -5.0707630005
CE2         5.3379372378        5.7741978018       -3.2708918509
HE2         6.1895145471        5.2209390153       -3.6423948309
CD2         4.5203503313        5.2313258036       -2.2600054049
HD2         4.7458694382        4.2539802409       -1.8501741408
C           3.5097267625        6.9494460772        1.0801236317
O           2.6809708330        7.6637921998        1.6532920356
N           4.7132669527        7.4019355327        0.7155262263
H           5.3290802820        6.7696286287        0.2226193164
CA          5.1713650549        8.7900589427        0.8472788243
HA          4.3130452617        9.4563311260        0.7451019837
CB          5.7872668477        9.0005460717        2.2423139830
HB2         5.0494362141        8.7309088792        2.9995343615
HB3         6.6378750663        8.3270190452        2.3603509314
CG          6.2368142647       10.4270246079        2.5065829082
CD1         7.6062825670       10.7609352233        2.4709414753
HD1         8.3486900816        9.9935770953        2.2874215357
CE1         8.0131222730       12.0967323231        2.6600146774
HE1         9.0614419130       12.3591030035        2.6296722854
CZ          7.0499003615       13.1032459438        2.8858416412
OH          7.4401062341       14.3934128024        3.0634398614
HH          6.6725570484       14.9645156836        3.1997536661
CE2         5.6791501964       12.7668430591        2.9282373681
HE2         4.9392958413       13.5360728361        3.1030798943
CD2         5.2756583097       11.4306531147        2.7384163421
HD2         4.2226088754       11.1764572078        2.7654159069
C           6.1809558194        9.1516576355       -0.2585556180
O           6.9072537711        8.2856883539       -0.7559104129
N           6.2538296890       10.4354629910       -0.6199427896
H           5.6488388354       11.0988268512       -0.1543908883
CA          7.2256324123       10.9846926320       -1.5700482380
HA2         8.2118609553       10.5707325275       -1.3557116790
HA3         6.9506041426       10.6995876604       -2.5856327539
C           7.3146111698       12.5136084657       -1.5013549244
O           6.3717773304       13.1841474813       -1.0705352572
N           8.4544043555       13.0678597776       -1.9172462405
H           9.1848515540       12.4586976383       -2.2617669693
CA          8.7523457448       14.5045004231       -1.8839037404
HA2         8.0948621625       15.0314400096       -2.5759631119
HA3         8.5680403388       14.8890061071       -0.8799502915
C          10.2049835746       14.8167546553       -2.2627235213
O          10.9420922567       13.9341081295       -2.7139252103
N          10.6233067881       16.0699070091       -2.0702132572
H           9.9678742148       16.7372439129       -1.6872770585
CA         11.9902815298       16.5465310639       -2.3202307993
HA         12.6751927200       15.6977475962       -2.2796291871
CB         12.0713608963       17.1551114845       -3.7294761402
HB2        11.7579349055       16.4035836037       -4.4559761772
HB3        11.3689208791       17.9875929282       -3.7981079834
CG         13.4575502798       17.6410619989       -4.1134387107
CD1        13.7751062418       19.0124849566       -4.0365108292
HD1        13.0250303385       19.7264553724       -3.7178170542
CE1        15.0695312289       19.4593273132       -4.3683895966
HE1        15.3116835359       20.5116294765       -4.3088196603
CZ         16.0518010845       18.5316980768       -4.7793039411
OH         17.3013250341       18.9557438588       -5.1069905433
HH         17.3844557513       19.9136123484       -5.0154297414
CE2        15.7320894110       17.1590893213       -4.8574650209
HE2        16.4879909351       16.4536862629       -5.1742697393
CD2        14.4372129219       16.7153713046       -4.5237848325
HD2        14.1959898551       15.6607164341       -4.5834350901
C          12.4384236626       17.5567062347       -1.2498812889
O          11.6424212070       18.3872605116       -0.8011540909
N          13.7157886477       17.4925722276       -0.8604563141
H          14.3182296995       16.8255273956       -1.3216780650
CA         14.3420558311       18.3368638032        0.1656122620
HA         13.7722565401       19.2614804840        0.2718576482
CB         14.3370133116       17.6047208098        1.5203155347
HB2        14.8684997348       16.6573235827        1.4140257717
HB3        14.8952096228       18.2041134813        2.2414211276
CG         12.9574534221       17.3390523493        2.1001629879
CD1        12.3047531068       18.3445387577        2.8408842872
HD1        12.7864312745       19.3020486712        2.9974838794
CE1        11.0239036773       18.1086890607        3.3770947375
HE1        10.5180466210       18.8773400714        3.9450587567
CZ         10.3885844572       16.8657869743        3.1706784672
OH          9.1504648873       16.6508365773        3.6877735915
HH          8.8105037601       15.7718252901        3.4588777762
CE2        11.0424280361       15.8556593213        2.4314614322
HE2        10.5569655556       14.9021020810        2.2754436921
CD2        12.3269650426       16.0929495783        1.9013242624
HD2        12.8281797909       15.3171139545        1.3356752174
C          15.7809397924       18.7151774527       -0.2286531060
O          16.4771363025       17.9391185264       -0.8911511509
N          16.2414348819       19.8959547229        0.2028967855
H          15.6153661256       20.4721796927        0.7492338962
CH3        17.5838421630       20.4145230876       -0.0622048908
HH31       17.7497069850       20.4940435960       -1.1385304045
HH32       17.6992826387       21.4031421833        0.3861611456
HH33       18.3352496443       19.7452076029        0.3617446297
         110
Energy of minimum      4=    -153.2086663     first found at step       28 after                20089 function calls
HH31        2.4045306235        5.3801745138        4.0274242772
CH3         2.3000973061        6.2102584097        3.3302705722
HH32        2.3839325072        7.1526850719        3.8693966515
HH33        1.3284589435        6.1564764679        2.8415036809
C           3.3889411349        6.1337635443        2.2859189115
O           4.2157138065        5.2238838776        2.3224712191
N           3.3890839527        7.0883274498        1.3575806172
H           2.6783867574        7.8038320280        1.4193635511
CA          4.3626702822        7.2078390347        0.2640757154
HA          5.3048235272        6.7529522974        0.5746350290
CB          3.8386939392        6.4440306829       -0.9647753728
HB2         3.6781515426        5.4006915090       -0.6884215673
HB3         2.8698644783        6.8571843442       -1.2510195746
CG          4.7668424402        6.4806081852       -2.1662929407
CD1         4.4978761603        7.3492405929       -3.2439289689
HD1         3.6161918192        7.9787406735       -3.2270935573
CE1         5.3767834857        7.4069061810       -4.3436693423
HE1         5.1688700149        8.0734563543       -5.1695231045
CZ          6.5298755873        6.5921168405       -4.3678900410
OH          7.3787668564        6.6365575296       -5.4289392096
HH          7.0757289759        7.2635567253       -6.0980169651
CE2         6.7969678254        5.7215079449       -3.2894277521
HE2         7.6806645975        5.0988002397       -3.3144989307
CD2         5.9170254129        5.6673454795       -2.1904423050
HD2         6.1265686957        4.9991190577       -1.3636342418
C           4.6459968820        8.6813203393       -0.0817924938
O           3.7704825663        9.5406289306        0.0621496272
N           5.8605670359        8.9710435965       -0.5582932118
H           6.5176725915        8.2120166173       -0.6765946060
CA          6.2843920250       10.2866107385       -1.0514134790
HA          5.4214476358       10.8010045874       -1.4779162659
CB          6.8222805892       11.1294967739        0.1201470955
HB2         6.0300486278       11.2530790388        0.8600904933
HB3         7.6371452263       10.5863849106        0.6020206403
CG          7.3177645052       12.5075863789       -0.2860277347
CD1         8.7001408655       12.7569967646       -0.4099335676
HD1         9.4158875607       11.9772004819       -0.1796711465
CE1         9.1548103147       14.0154517783       -0.8504305903
HE1        10.2127525632       14.2089446808       -0.9527957437
CZ          8.2273811677       15.0309672273       -1.1667140529
OH          8.6684260164       16.2411847267       -1.6008191900
HH          7.9336331667       16.8432244283       -1.7708978256
CE2         6.8435016604       14.7841004181       -1.0335940307
HE2         6.1308459511       15.5611808234       -1.2739945402
CD2         6.3916971175       13.5235317911       -0.5950092772
HD2         5.3288920434       13.3340614184       -0.5021792520
C           7.3477076661       10.1543073872       -2.1574759721
O           8.1585433453        9.2232408102       -2.1445683347
N           7.3755716118       11.1167617424       -3.0835721226
H           6.6815952235       11.8493253229       -3.0234976161
CA          8.4381719118       11.3003169235       -4.0762649521
HA2         9.3792889849       10.9066869023       -3.6897884315
HA3         8.1898800644       10.7598828449       -4.9896798979
C           8.6184139929       12.7822836104       -4.4188468852
O           7.6433647517       13.4725789546       -4.7281027998
N           9.8551577572       13.2778055099       -4.3411620915
H          10.6020148661       12.6517402397       -4.0720328657
CA         10.2056570880       14.6950266485       -4.4961922373
HA2        10.4388440094       14.9039828470       -5.5403544513
HA3         9.3583159754       15.3177191964       -4.2067842671
C          11.4125121694       15.0951842623       -3.6392156481
O          12.1957290071       14.2387613598       -3.2167043598
N          11.5593916930       16.3942989786       -3.3696829869
H          10.8673389297       17.0362228828       -3.7308358801
CA         12.6035175587       16.9600033790       -2.5057573892
HA         12.9249950527       16.1983630347       -1.7932730033
CB         13.8172466213       17.3557077994       -3.3625484997
HB2        14.1666068776       16.4764385880       -3.9061856467
HB3        13.5036573248       18.0937040147       -4.1029309432
CG         14.9806651512       17.9152845420       -2.5638108074
CD1        15.2029147393       19.3064246620       -2.5142245941
HD1        14.5558514814       19.9806547765       -3.0623796620
CE1        16.2632296630       19.8250355085       -1.7453120552
HE1        16.4381425814       20.8912243402       -1.7021543250
CZ         17.1055336240       18.9527943039       -1.0230617835
OH         18.1301193591       19.4574934041       -0.2855359253
HH         18.6267296239       18.7558457412        0.1549121711
CE2        16.8843802177       17.5589130413       -1.0758233727
HE2        17.5298175987       16.8886554860       -0.5246658826
CD2        15.8220608679       17.0433543145       -1.8447144387
HD2        15.6522647679       15.9737811795       -1.8813891820
C          12.0794775156       18.1605074981       -1.6976832483
O          11.2533483949       18.9369411255       -2.1873205228
N          12.5740516818       18.3208025391       -0.4671790208
H          13.2772277697       17.6694766756       -0.1473929838
CA         12.2469828478       19.4199473210        0.4493529705
HA         12.0616098772       20.3218328087       -0.1366861885
CB         10.9611052487       19.0886623251        1.2313591766
HB2        10.7094131865       19.9390755344        1.8667738724
HB3        10.1412368584       18.9797101084        0.5197150202
CG         11.0201608340       17.8371066230        2.0938085382
CD1        10.6546503444       16.5898309260        1.5494966469
HD1        10.3368586925       16.5250017393        0.5178246924
CE1        10.6994710154       15.4277788739        2.3437177700
HE1        10.4178606413       14.4698557848        1.9291984207
CZ         11.1097307027       15.5097048014        3.6912598217
OH         11.1519977848       14.3862090892        4.4556292840
HH         11.4473509550       14.5817496365        5.3542679259
CE2        11.4717747545       16.7595941468        4.2401771540
HE2        11.7842532231       16.8250967778        5.2734686547
CD2        11.4245305877       17.9200992314        3.4417753919
HD2        11.7010042714       18.8770271282        3.8674411405
C          13.4186341488       19.7250988032        1.4024078403
O          14.2835840195       18.8745699839        1.6366574952
N          13.4430952303       20.9403001513        1.9643683904
H          12.6998854987       21.5828294609        1.7249183597
CH3        14.4694481095       21.4073071868        2.8969760215
HH31       14.4895563803       20.7697365333        3.7831767400
HH32       15.4510960716       21.3786113899        2.4195447636
HH33       14.2573246035       22.4328127507        3.2052388187
         110
Energy of minimum      5=    -153.1806690     first found at step       29 after                20640 function calls
HH31        2.0964518702        5.5209900590        4.3566542856
CH3         2.0499639918        6.2786134261        3.5757477303
HH32        2.0918380056        7.2695391073        4.0253761895
HH33        1.1207168533        6.1716177723        3.0181467820
C           3.2191838896        6.1074066026        2.6346231582
O           4.0386902870        5.2104340319        2.8259844901
N           3.2957688409        6.9670456810        1.6206407261
H           2.5837002305        7.6808501962        1.5551005186
CA          4.3543822325        6.9853742656        0.6023536612
HA          5.2676088903        6.5683947542        1.0303327127
CB          3.9294372097        6.1025988851       -0.5843039059