         110
Energy of minimum      1=    -153.4901111     first found at step       75 after                60514 function calls
HH31       -0.3534343003       10.7525216304        6.1431096483
CH3        -0.7005578811       10.6668787353        5.1145020727
HH32       -0.8553608071        9.6171817894        4.8695093936
HH33       -1.6368306009       11.2108754990        4.9986366860
C           0.3402886010       11.2480210218        4.1865964614
O           0.0540870244       12.1932594089        3.4535445529
N           1.5455525702       10.6829093508        4.2182774101
H           1.6803093092        9.8979888724        4.8400821520
CA          2.6913140227       11.0802740650        3.3887815237
HA          2.3207424798       11.5181155605        2.4604075193
CB          3.5078059800       12.1493344135        4.1361710285
HB2         2.8414216777       12.9657422928        4.4194114626
HB3         3.8991861709       11.7154308322        5.0579639849
CG          4.6538328368       12.7397199097        3.3335888008
CD1         5.9847326141       12.3702193269        3.6149094604
HD1         6.1984094504       11.6710224102        4.4142131699
CE1         7.0423707910       12.9069497114        2.8544803872
HE1         8.0639574961       12.6257939076        3.0661155066
CZ          6.7726151437       13.8148632969        1.8080370447
OH          7.7944190681       14.3393802872        1.0804897964
HH          7.4664324865       14.9462886351        0.4056457818
CE2         5.4390737595       14.1861142037        1.5283455823
HE2         5.2292735323       14.8845990733        0.7297927567
CD2         4.3834114046       13.6478709520        2.2906963328
HD2         3.3613153120       13.9358186229        2.0747947879
C           3.5644989709        9.8669061620        3.0163122470
O           3.5941033978        8.8676385157        3.7419941151
N           4.2822493809        9.9522688768        1.8922281561
H           4.2477679347       10.8178887507        1.3709863731
CA          5.2061462402        8.9239385864        1.3964304679
HA          5.6014187111        8.3640836501        2.2457377586
CB          4.4390230357        7.9478009385        0.4879308702
HB2         3.5858385824        7.5500156494        1.0398654942
HB3         4.0444349775        8.4966552532       -0.3689273594
CG          5.2661124122        6.7740835783       -0.0057576589
CD1         5.7274347564        6.7392344071       -1.3373907186
HD1         5.4806212058        7.5442761036       -2.0192698198
CE1         6.5156256907        5.6606460378       -1.7856071171
HE1         6.8698270406        5.6359813129       -2.8071908357
CZ          6.8445720183        4.6112184395       -0.8998887887
OH          7.6052858672        3.5677049550       -1.3248279602
HH          7.8534300590        3.6668155611       -2.2531481892
CE2         6.3815472429        4.6469727920        0.4329073816
HE2         6.6357642199        3.8401155155        1.1066255216
CD2         5.5937130663        5.7267390264        0.8780579278
HD2         5.2390672450        5.7499102030        1.9017502332
C           6.4002746100        9.5576427562        0.6578785868
O           6.2774384782       10.6419396363        0.0799658717
N           7.5536750528        8.8814152390        0.6601898488
H           7.5809455780        7.9876506342        1.1294303602
CA          8.8052292574        9.3874327521        0.0834840586
HA2         9.5070454555        8.5635263667       -0.0462506637
HA3         8.6036005540        9.8101205780       -0.9017264985
C           9.4769914807       10.4557363922        0.9567836491
O           9.4375523162       10.3805260624        2.1885415327
N          10.1105171209       11.4457729048        0.3251803032
H          10.1058784010       11.4519034381       -0.6859848461
CA         10.7976247543       12.5563288749        0.9946507353
HA2        10.1305034717       13.0048271392        1.7310332534
HA3        11.6740973154       12.1768886665        1.5206725159
C          11.2538491070       13.6543967381        0.0271448531
O          11.1611476556       13.5013200331       -1.1950825123
N          11.7550025774       14.7638401402        0.5751806163
H          11.8139532391       14.8099617936        1.5832337051
CA         12.2575760165       15.9249020415       -0.1714575389
HA         12.6117793442       15.5938869726       -1.1492944279
CB         11.1071952431       16.9228569019       -0.3873309434
HB2        10.2956226927       16.4160921352       -0.9118933686
HB3        10.7217982672       17.2345446911        0.5850437451
CG         11.4923996835       18.1543510559       -1.1871368848
CD1        11.7257954527       19.3807740156       -0.5324220475
HD1        11.6130999985       19.4538850290        0.5425945817
CE1        12.1129910977       20.5143352598       -1.2737320842
HE1        12.2943798176       21.4576756216       -0.7773615231
CZ         12.2679148401       20.4246071681       -2.6736952647
OH         12.6364162027       21.5226066292       -3.3858205899
HH         12.7039239125       21.3250456666       -4.3288452080
CE2        12.0305767629       19.1964502427       -3.3294372263
HE2        12.1463031291       19.1261970139       -4.4024096187
CD2        11.6446812007       18.0640227217       -2.5849726480
HD2        11.4651605220       17.1221811972       -3.0898204364
C          13.4412180441       16.5911455172        0.5534994909
O          13.5158663881       16.5687605420        1.7861130304
N          14.3604864468       17.1899276497       -0.2085890350
H          14.2161580333       17.2030547270       -1.2087884577
CA         15.5303695049       17.9261472245        0.2865910383
HA         15.2651020102       18.4128906773        1.2268073812
CB         16.6886889459       16.9493802393        0.5683153297
HB2        17.5239292090       17.5110692031        0.9893678039
HB3        16.3696556851       16.2450459593        1.3381123121
CG         17.1893606017       16.1603143925       -0.6319860262
CD1        16.6149994158       14.9115550370       -0.9457795595
HD1        15.8159100792       14.5136095455       -0.3326427957
CE1        17.0774654124       14.1781646254       -2.0561603272
HE1        16.6381802666       13.2211005974       -2.3020932127
CZ         18.1218866487       14.6895732170       -2.8557473826
OH         18.5655681219       13.9785491529       -3.9262664479
HH         19.2804457847       14.4394108601       -4.3842213840
CE2        18.7033045735       15.9365088432       -2.5377702953
HE2        19.5056355874       16.3292366691       -3.1474541118
CD2        18.2373858017       16.6678605934       -1.4269216372
HD2        18.6867017042       17.6237361765       -1.1864617887
C          15.9575070870       19.0324264776       -0.6973103403
O          15.6481031540       18.9728112306       -1.8918257911
N          16.6823432234       20.0415951972       -0.1979659083
H          16.8975358103       20.0205956504        0.7898622655
CH3        17.1820786486       21.1748663392       -0.9772217962
HH31       16.3482106431       21.7168276469       -1.4281739099
HH32       17.7382681749       21.8574818063       -0.3319455954
HH33       17.8437874030       20.8220847762       -1.7709033859
         110
Energy of minimum      2=    -153.3189191     first found at step        2 after                 1968 function calls
HH31        2.1349703495        1.1345410243       -0.7210493086
CH3         2.2085387786        2.1493347461       -1.1093182702
HH32        1.3473013957        2.7292747371       -0.7809939015
HH33        2.2351520135        2.1227779892       -2.1976456996
C           3.4724870103        2.7973651105       -0.5949183803
O           4.2274750151        2.1725612136        0.1483292100
N           3.7010259755        4.0484252618       -0.9893792069
H           3.0146914537        4.4847636169       -1.5888774700
CA          4.8591784393        4.8625716272       -0.5977968430
HA          5.2167290641        4.5293739517        0.3780167964
CB          5.9912405357        4.6609040277       -1.6221982245
HB2         6.2818585045        3.6091749076       -1.6239271498
HB3         5.6117246020        4.8953651396       -2.6183424929
CG          7.2287162654        5.5021091633       -1.3580506467
CD1         7.4444295053        6.6907892421       -2.0853908808
HD1         6.7459985082        6.9899895369       -2.8576625031
CE1         8.5606919877        7.5013860785       -1.8004883794
HE1         8.7287093695        8.4160166543       -2.3519750099
CZ          9.4681238949        7.1237846599       -0.7879781110
OH         10.5434427207        7.9098065693       -0.5160390337
HH         11.0862828442        7.5333432384        0.1883231057
CE2         9.2566080434        5.9289144059       -0.0652957570
HE2         9.9517737485        5.6370297684        0.7099992784
CD2         8.1368105257        5.1219520224       -0.3500387580
HD2         7.9721567438        4.2100828804        0.2116756563
C           4.4918548899        6.3529549195       -0.4767855617
O           3.6183263689        6.8478444822       -1.1961286607
N           5.1879228374        7.0754127319        0.4059627743
H           5.8968334588        6.6019063127        0.9491151299
CA          5.1530250601        8.5373933081        0.5177377537
HA          4.9111996749        8.9611447219       -0.4585317453
CB          4.0587248347        8.9586198309        1.5115754487
HB2         3.1034550014        8.5488216333        1.1797468509
HB3         4.2785363631        8.5245162427        2.4884804552
CG          3.9075225551       10.4623995553        1.6551773502
CD1         4.4619276891       11.1288825215        2.7666077326
HD1         4.9833067978       10.5677374338        3.5328474853
CE1         4.3460216602       12.5282538658        2.8807379286
HE1         4.7708657895       13.0454168647        3.7300992628
CZ          3.6744022142       13.2661796094        1.8826046205
OH          3.5662897700       14.6165846753        1.9962837796
HH          3.0853992156       14.9962435312        1.2494722096
CE2         3.1177826855       12.5977811924        0.7701011420
HE2         2.6023731619       13.1611081020        0.0041057322
CD2         3.2360006213       11.1981168639        0.6585360325
HD2         2.8101218327       10.6873726130       -0.1970399573
C           6.5293328972        9.0806863699        0.9425098528
O           7.2187493104        8.4674034987        1.7633395960
N           6.9259022127       10.2346292617        0.4001569684
H           6.3081790366       10.7008368729       -0.2504773601
CA          8.2061880649       10.8912119015        0.6838915086
HA2         8.2496421682       11.1565222292        1.7407140477
HA3         9.0232233630       10.2002567924        0.4734993870
C           8.4261571259       12.1631522084       -0.1433618065
O           7.5911366044       12.5334161776       -0.9748927400
N           9.5551317224       12.8378001166        0.0815575676
H          10.1982071888       12.4802376697        0.7757853022
CA          9.9418566454       14.0737108888       -0.6094481439
HA2         9.9983614736       13.8866094450       -1.6823516790
HA3         9.1823793274       14.8374872282       -0.4387437994
C          11.2946047356       14.6270583582       -0.1451928320
O          11.9472201626       14.0514193079        0.7313786389
N          11.7173301375       15.7480884736       -0.7342472648
H          11.1207408042       16.1710301322       -1.4322635637
CA         12.9737465055       16.4453343790       -0.4267825923
HA         13.2507965596       16.2421712871        0.6091832393
CB         14.0872937574       15.9045074721       -1.3406561278
HB2        14.1759858307       14.8277109428       -1.1877599709
HB3        13.7982777980       16.0621348033       -2.3812752827
CG         15.4501830206       16.5311712345       -1.1045337818
CD1        15.9389037737       17.5185698968       -1.9844005066
HD1        15.3508452310       17.8202941203       -2.8429120913
CE1        17.1908372019       18.1204595918       -1.7484990786
HE1        17.5645536634       18.8772452175       -2.4246061459
CZ         17.9589392632       17.7339273360       -0.6283573822
OH         19.1716485292       18.3039963683       -0.3986175365
HH         19.3903253050       18.9552253038       -1.0773217363
CE2        17.4692042933       16.7442181286        0.2508640793
HE2        18.0628439234       16.4510113994        1.1058157023
CD2        16.2164105970       16.1451580614        0.0129518522
HD2        15.8434540396       15.3865041322        0.6907502869
C          12.8247605763       17.9703082746       -0.5805399446
O          12.0367621341       18.4439680215       -1.4053208150
N          13.5919493398       18.7386801927        0.1986797497
H          14.2363417681       18.2820832645        0.8296971849
CA         13.6698475270       20.2030314537        0.1304941415
HA         13.4890252292       20.5191317472       -0.8982805360
CB         12.5790513127       20.8150932013        1.0259179998
HB2        11.6102667189       20.4109623309        0.7280059665
HB3        12.7547385960       20.5091513737        2.0587179024
CG         12.4960281481       22.3296237129        0.9590427911
CD1        13.0118190792       23.1171324739        2.0083207456
HD1        13.4602736610       22.6432051507        2.8732990340
CE1        12.9510933088       24.5229793000        1.9342406372
HE1        13.3483907660       25.1258078851        2.7394905422
CZ         12.3722667875       25.1456723097        0.8067230389
OH         12.3107144067       26.5014962131        0.7277583537
HH         12.6973784036       26.9183791434        1.5087159023
CE2        11.8554912685       24.3560912707       -0.2428518570
HE2        11.4124792850       24.8383154585       -1.1034984332
CD2        11.9176912869       22.9507412280       -0.1657441970
HD2        11.5188781376       22.3477524373       -0.9729237701
C          15.0685304220       20.7023065038        0.5397717873
O          15.7240312672       20.0971850108        1.3943160307
N          15.5214343159       21.8137172587       -0.0539073047
H          14.9140378685       22.2675039518       -0.7225339073
CH3        16.8169121756       22.4364014248        0.2181590800
HH31       17.6222778990       21.7211326405        0.0396218159
HH32       16.9613126557       23.3005264510       -0.4329345835
HH33       16.8619473085       22.7667596335        1.2578093748
         110
Energy of minimum      3=    -153.3017865     first found at step       22 after                16962 function calls
HH31       -0.8875488137        3.3415580554       -1.4081932046
CH3        -0.4804700032        4.1186591752       -0.7629243760
HH32       -0.1255100891        3.6736218239        0.1654088325
HH33       -1.2545125578        4.8519702172       -0.5416026425
C           0.6710544331        4.8036966504       -1.4606568859
O           1.0087374700        4.4474633483       -2.5884302628
N           1.2723914108        5.7845438132       -0.7903486305
H           0.9335178716        5.9957524446        0.1377683940
CA          2.4144439656        6.5687438873       -1.2784407220
HA          2.9884175801        5.9639618968       -1.9826196803
CB          1.8950725653        7.8135872127       -2.0215726249
HB2         1.2964810427        7.4905925996       -2.8747776760
HB3         1.2363990812        8.3732723938       -1.3550819738
CG          2.9883291766        8.7415833046       -2.5239378653
CD1         3.7152781176        8.4101672804       -3.6845198710
HD1         3.4700740071        7.5123567591       -4.2394530305
CE1         4.7662425207        9.2407079594       -4.1225722151
HE1         5.3246986982        8.9841745745       -5.0124331886
CZ          5.0956434992       10.4057903837       -3.3953879283
OH          6.1109779635       11.2095698368       -3.8090594205
HH          6.5200853248       10.8735259300       -4.6166666858
CE2         4.3641210962       10.7393751207       -2.2357396473
HE2         4.6192513469       11.6335704812       -1.6841642951
CD2         3.3117186521        9.9092781103       -1.8025323238
HD2         2.7591454779       10.1653457941       -0.9065281950
C           3.3588818929        6.9725079521       -0.1313536702
O           2.9190346303        7.1838070483        1.0032408610
N           4.6513576890        7.1182268649       -0.4379010227
H           4.9331497178        6.9402651876       -1.3922028981
CA          5.6681401484        7.7061883479        0.4404774894
HA          5.1864532528        8.4198646784        1.1111416985
CB          6.3198606566        6.6059957612        1.2933457450
HB2         5.5415029927        6.0864813164        1.8544627906
HB3         6.7895363439        5.8747851282        0.6331610645
CG          7.3513926570        7.1249200133        2.2789881932
CD1         8.7270077590        7.0138152897        1.9916496302
HD1         9.0533793441        6.5412904618        1.0728489778
CE1         9.6821153591        7.5224682002        2.8941155157
HE1        10.7371056507        7.4378367191        2.6716260354
CZ          9.2613567676        8.1450258248        4.0897202892
OH         10.1769363844        8.6389591638        4.9649145714
HH         11.0789083566        8.4980009681        4.6491924827
CE2         7.8838034799        8.2544932406        4.3768313193
HE2         7.5674116119        8.7321016434        5.2940156466
CD2         6.9313207836        7.7455676138        3.4720796204
HD2         5.8745330828        7.8332668760        3.6948090101
C           6.7212000994        8.4674498062       -0.3849099871
O           7.1040828753        8.0251290434       -1.4725337057
N           7.2015518011        9.6011750500        0.1317262501
H           6.8640973476        9.9017415055        1.0361843263
CA          8.1992773908       10.4557602905       -0.5202026095
HA2         9.1302793864        9.9000078043       -0.6364335217
HA3         7.8448434621       10.7355968225       -1.5128216206
C           8.4968783930       11.7390276664        0.2641476677
O           7.9063186823       11.9909009286        1.3194074837
N           9.4162113728       12.5576681864       -0.2506109936
H           9.8624801773       12.2933213072       -1.1191229779
CA          9.8347275493       13.8288144357        0.3523481310
HA2         8.9704027775       14.4871188321        0.4467054040
HA3        10.2295653038       13.6434840586        1.3518745932
C          10.9093368353       14.5587429978       -0.4625599628
O          11.3475759215       14.0739925477       -1.5107048299
N          11.3355093806       15.7284121606        0.0197698257
H          10.9415924265       16.0534266034        0.8922499126
CA         12.3638987012       16.5763212549       -0.5988885804
HA         13.0470083873       15.9479415521       -1.1731332105
CB         11.6880403317       17.5651601381       -1.5648408473
HB2        11.1282726200       17.0002156585       -2.3119902473
HB3        10.9689143470       18.1681005722       -1.0075390295
CG         12.6510172690       18.4878494226       -2.2909598014
CD1        12.8038499134       19.8254076912       -1.8719735491
HD1        12.2204966248       20.2044949894       -1.0413815114
CE1        13.7187981326       20.6728444263       -2.5277022614
HE1        13.8344523826       21.6986748602       -2.2055150576
CZ         14.4847634020       20.1821210489       -3.6077918745
OH         15.3635631154       20.9959985142       -4.2510156839
HH         15.3648079506       21.8843428088       -3.8723339972
CE2        14.3296961029       18.8433076469       -4.0272278436
HE2        14.9176136516       18.4738592178       -4.8561920717
CD2        13.4148950824       17.9980700515       -3.3686853083
HD2        13.2994488087       16.9706602266       -3.6929751996
C          13.1943399264       17.3211768646        0.4626899004
O          12.6882864658       17.6449296320        1.5418817173
N          14.4621367561       17.6086270785        0.1524953468
H          14.8005620230       17.3397746589       -0.7613393192
CA         15.3794259543       18.3975038495        0.9839361731
HA         14.8017866757       19.1298409758        1.5505129593
CB         16.0950064366       17.4678075848        1.9788415379
HB2        15.3451210582       16.9177267548        2.5495450489
HB3        16.6807458929       16.7348643676        1.4213068320
CG         16.9990089319       18.1873719274        2.9638177737
CD1        18.3983350577       18.1581899849        2.7969588642
HD1        18.8363708885       17.6122957708        1.9699830040
CE1        19.2319029379       18.8435562717        3.7026876794
HE1        20.3060473219       18.8258800626        3.5790520822
CZ         18.6680416759       19.5610445505        4.7793418625
OH         19.4763641085       20.2214446535        5.6504329369
HH         18.9647495265       20.6686415975        6.3370635238
CE2        17.2660625576       19.5894244996        4.9464851686
HE2        16.8316059314       20.1376609587        5.7714027920
CD2        16.4351022240       18.9028078543        4.0389714347
HD2        15.3595909955       18.9246864242        4.1698434715
C          16.3930237781       19.1650671074        0.1141406618
O          16.7978384855       18.6826433367       -0.9486350280
N          16.8175289482       20.3509310695        0.5683765587
H          16.4608914637       20.6648981085        1.4606393572
CH3        17.7832847256       21.2098439211       -0.1169187107
HH31       17.4273573704       21.4484211642       -1.1211579593
HH32       17.9192388697       22.1390103897        0.4395471889
HH33       18.7463371071       20.7014436829       -0.1950308515
         110
Energy of minimum      4=    -152.9751113     first found at step        1 after                 1250 function calls
HH31        1.9647473796        1.3199811484        0.2377396893
CH3         2.0664093966        2.2849385181       -0.2567227371
HH32        1.2842549881        2.9578838542        0.0914655234
HH33        1.9798054927        2.1538967646       -1.3343110420
C           3.4170612598        2.8792632430        0.0667336664
O           4.2002399134        2.2710287028        0.7943795958
N           3.6878021549        4.0662020540       -0.4725964226
H           2.9746374637        4.4957100902       -1.0451037979
CA          4.9318959013        4.8224036847       -0.2773988728
HA          5.3647484045        4.5540599059        0.6878290885
CB          5.9349460485        4.4398971178       -1.3802307681
HB2         6.1334761681        3.3686774529       -1.3192473479
HB3         5.4792980233        4.6311861709       -2.3534087402
CG          7.2609312793        5.1768856910       -1.3032297731
CD1         7.5231841825        6.2557808852       -2.1724517197
HD1         6.7880204743        6.5476047578       -2.9129251760
CE1         8.7383843333        6.9625625115       -2.0782654059
HE1         8.9379719394        7.7890175432       -2.7465902960
CZ          9.6970119862        6.5901024272       -1.1107174147
OH         10.8752049923        7.2622811858       -1.0190910809
HH         10.9354543909        7.9626744474       -1.6809714190
CE2         9.4339049404        5.5093358624       -0.2417202208
HE2        10.1725975638        5.2279491598        0.4961379566
CD2         8.2174841994        4.8048571529       -0.3380650938
HD2         8.0187217994        3.9768506664        0.3319413385
C           4.6764437906        6.3406781085       -0.2695492071
O           3.7670583801        6.8296884497       -0.9473616217
N           5.4951090595        7.0886345983        0.4762963513
H           6.2320982519        6.6206515381        0.9859299423
CA          5.5115539871        8.5555239312        0.5054807344
HA          5.2012021805        8.9325780048       -0.4705549352
CB          4.5142519782        9.0619570717        1.5611728369
HB2         3.5247154283        8.6630306496        1.3326714603
HB3         4.8043310344        8.6736702161        2.5390450582
CG          4.4096833021       10.5748402318        1.6352258164
CD1         5.0511695302       11.2811129604        2.6728634758
HD1         5.6056977996       10.7452644495        3.4338926855
CE1         4.9799908875       12.6873331792        2.7188997449
HE1         5.4718534851       13.2348622472        3.5111296084
CZ          4.2657754720       13.3923092556        1.7265627813
OH          4.2010231823       14.7494051374        1.7743262782
HH          3.6834426004       15.1040871481        1.0398825842
CE2         3.6211675967       12.6841165166        0.6886856698
HE2         3.0726704023       13.2221849742       -0.0724671067
CD2         3.6949409925       11.2776658230        0.6449333894
HD2         3.2016203161       10.7363027625       -0.1536954156
C           6.9300417182        9.0840533862        0.7878186363
O           7.6961593528        8.4611507051        1.5294063778
N           7.2761874468       10.2412191570        0.2181589957
H           6.5973970817       10.7146311327       -0.3629854426
CA          8.5674771613       10.9107197501        0.4058004319
HA2         8.7096711489       11.1279211056        1.4650306596
HA3         9.3719988383       10.2484486059        0.0845239820
C           8.6816360660       12.2247372182       -0.3763092182
O           7.7942141816       12.5772523256       -1.1597320085
N           9.7783569703       12.9552631113       -0.1668077491
H          10.4680503414       12.6098153313        0.4876816867
CA         10.0637365395       14.2394301384       -0.8180734715
HA2        10.0916516155       14.0993503987       -1.8992336766
HA3         9.2662003909       14.9471429022       -0.5891395403
C          11.3966859493       14.8567718728       -0.3778612210
O          12.1177636830       14.2853377590        0.4462428913
N          11.7254270723       16.0277557603       -0.9284170851
H          11.0767532561       16.4424817186       -1.5835878949
CA         12.9469715453       16.7896301024       -0.6340602987
HA         13.2764960119       16.5583665398        0.3804295838
CB         14.0554783799       16.3629035620       -1.6121986473
HB2        14.2171123365       15.2882400154       -1.5136781094
HB3        13.7166897803       16.5482114347       -2.6330551028
CG         15.3847937059       17.0644772579       -1.3962230344
CD1        15.7761127849       18.1197141726       -2.2455254579
HD1        15.1372123244       18.4213428107       -3.0669381221
CE1        16.9963102136       18.7894820593       -2.0269216692
HE1        17.2953079102       19.5982862068       -2.6795670180
CZ         17.8303003146       18.4031108042       -0.9548754166
OH         19.0131241969       19.0389165218       -0.7425049723
HH         19.1639903939       19.7326617024       -1.3971159905
CE2        17.4380885644       17.3455346362       -0.1062899247
HE2        18.0818833072       17.0529196025        0.7117726385
CD2        16.2167776630       16.6786231624       -0.3267348340
HD2        15.9187216759       15.8679336218        0.3274893609
C          12.6972006753       18.3072676539       -0.7100548843
O          11.8495417232       18.7659425084       -1.4824865447
N          13.4447935937       19.0875160377        0.0763761732
H          14.1406064661       18.6453383309        0.6613799141
CA         13.4283607306       20.5554296503        0.0747827661
HA         13.1880588268       20.9051746981       -0.9306656979
CB         12.3373175320       21.0553513892        1.0370432617
HB2        11.3847592902       20.6036497298        0.7555910115
HB3        12.5720274775       20.7152293645        2.0471771366
CG         12.1573008177       22.5628987146        1.0449518453
CD1        12.6635090385       23.3339576201        2.1109800149
HD1        13.1741558180       22.8514174670        2.9357835454
CE1        12.5122371833       24.7349109071        2.1057473319
HE1        12.9022722888       25.3252139405        2.9237265486
CZ         11.8520188207       25.3691854250        1.0306241098
OH         11.7028566765       26.7204359750        1.0181778582
HH         12.0929526776       27.1257746602        1.8034935822
CE2        11.3449463611       24.5960108321       -0.0357628204
HE2        10.8393783349       25.0869785143       -0.8560455803
CD2        11.4977755198       23.1955114047       -0.0275378029
HD2        11.1061626408       22.6050387627       -0.8473956066
C          14.8080650891       21.1245672572        0.4563558922
O          15.5330277664       20.5249475097        1.2569706930
N          15.1670755922       22.2883512896       -0.0999974640
H          14.5068152982       22.7318286851       -0.7239353557
CH3        16.4307764112       22.9800635044        0.1541944816
HH31       17.2716479305       22.3267537228       -0.0870944580
HH32       16.4953137839       23.8801092571       -0.4600034930
HH33       16.4957450292       23.2654971015        1.2060235461
         110
Energy of minimum      5=    -152.9588522     first found at step        0 after                  645 function calls
HH31        2.0583410447        1.2612466436        0.1463612555
CH3         2.1710231525        2.2219063984       -0.3540449339
HH32        1.3702541226        2.8914638885       -0.0436934745
HH33        2.1275401829        2.0789786662       -1.4327246123
C           3.5029943639        2.8314732178        0.0152614583
O           4.2623654561        2.2377439818        0.7792179493
N           3.7844901151        4.0151293662       -0.5257732227
H           3.0905578265        4.4323609097       -1.1301093842
CA          5.0136312878        4.7842625387       -0.2905122213
HA          5.4108608908        4.5297533936        0.6935957039
CB          6.0620508081        4.3992901539       -1.3494362577