         110
Energy of minimum      1=    -153.7695266     first found at step       94 after                65874 function calls
HH31       -1.9886256583        4.2655236659        1.4673909691
CH3        -1.4127323681        4.8022895327        0.7149284841
HH32       -1.9669681685        5.6812763452        0.3892598204
HH33       -1.2303864112        4.1509405175       -0.1385131798
C          -0.0906116562        5.2353362835        1.3036311738
O           0.1819263508        4.9658818194        2.4723475488
N           0.7278029225        5.9060507415        0.4953335311
H           0.4095291082        6.0936853800       -0.4450611773
CA          2.0494061432        6.4271713073        0.8689108800
HA          2.0642267712        6.6256551717        1.9419519715
CB          3.1183257452        5.3642907766        0.5589246724
HB2         2.8906413998        4.4603684085        1.1261523162
HB3         3.0627289545        5.1061117928       -0.5000994653
CG          4.5383996021        5.7901419787        0.8891814639
CD1         5.4096308112        6.2083660019       -0.1376271819
HD1         5.0749435487        6.2064339996       -1.1681149933
CE1         6.7159842809        6.6359498640        0.1718387834
HE1         7.3829896863        6.9554528942       -0.6171799792
CZ          7.1548794023        6.6457720752        1.5139279491
OH          8.4166305850        7.0494312026        1.8195703646
HH          8.9115290878        7.2939227959        1.0273133074
CE2         6.2823061856        6.2257560025        2.5408778233
HE2         6.6247434560        6.2340515948        3.5665275615
CD2         4.9762365752        5.7995810803        2.2282577434
HD2         4.3089631770        5.4794763546        3.0196476440
C           2.3619704917        7.7491477025        0.1441839122
O           1.9182399451        7.9664828768       -0.9878243406
N           3.1461929783        8.6211301065        0.7849801200
H           3.4929883971        8.3642545306        1.6990944621
CA          3.6690257391        9.8677440845        0.2145067421
HA          3.8045946842        9.7349503585       -0.8602494220
CB          2.6543281657       11.0039153174        0.4361737352
HB2         2.4305854633       11.0752971212        1.5019998371
HB3         1.7248404934       10.7549347899       -0.0780121650
CG          3.1323600396       12.3562067442       -0.0621145464
CD1         3.2045207317       12.6121934726       -1.4461279098
HD1         2.8680120475       11.8639392037       -2.1539437619
CE1         3.7336470566       13.8319728461       -1.9134183486
HE1         3.8026953897       14.0210419692       -2.9760329696
CZ          4.1921928275       14.8002750952       -0.9933895277
OH          4.7424345645       15.9634441016       -1.4356050127
HH          4.7103166584       16.0199613201       -2.3997937547
CE2         4.0970168191       14.5516746478        0.3924175423
HE2         4.4448132307       15.2967522845        1.0944078897
CD2         3.5703326660       13.3311620414        0.8562840223
HD2         3.5223373089       13.1368310020        1.9209764025
C           5.0418080628       10.2235675903        0.8180346074
O           5.3086548883        9.9406519822        1.9899047773
N           5.9027663933       10.8674278765        0.0255914723
H           5.6113391201       11.0867179146       -0.9175847373
CA          7.2235898525       11.3588171162        0.4309971370
HA2         7.1120436774       12.0331722267        1.2808694546
HA3         7.8492036474       10.5207656688        0.7393239427
C           7.9399234572       12.1128552693       -0.6966943940
O           7.4885356633       12.1061045298       -1.8466519602
N           9.0595467919       12.7649773414       -0.3770792594
H           9.3843114923       12.7287574519        0.5798168776
CA          9.8480662719       13.5616968226       -1.3245640031
HA2        10.2748218911       12.9080620174       -2.0858412997
HA3         9.1903125888       14.2752022961       -1.8228375194
C          10.9907432793       14.3414665889       -0.6646147098
O          11.3665973377       14.0683740282        0.4794368975
N          11.5325858386       15.3225947217       -1.3897271045
H          11.1543816518       15.4875944401       -2.3121006615
CA         12.5595879610       16.2639917978       -0.9234617215
HA         12.6592565543       16.1738094869        0.1593379143
CB         13.9132673569       15.9040688038       -1.5534730384
HB2        14.1452605060       14.8644427757       -1.3163372065
HB3        13.8318908116       15.9813886625       -2.6390286162
CG         15.0647870293       16.7692805719       -1.0748856200
CD1        15.5604247998       17.8065352727       -1.8906645528
HD1        15.1303546029       17.9805082956       -2.8698015408
CE1        16.6136072947       18.6238832229       -1.4344642211
HE1        16.9926732483       19.4196443453       -2.0610556146
CZ         17.1738631756       18.4048290414       -0.1568348628
OH         18.1928386362       19.1868508827        0.2888367406
HH         18.4353928773       19.8560578199       -0.3640964221
CE2        16.6772878295       17.3650792137        0.6584360450
HE2        17.1115213026       17.2008546274        1.6351142726
CD2        15.6240672777       16.5496983403        0.1995569888
HD2        15.2455618387       15.7525653405        0.8284065483
C          12.1458340963       17.7145998583       -1.2283324734
O          11.4840707620       17.9752768006       -2.2386801062
N          12.5142290473       18.6529336301       -0.3494345712
H          13.1369087837       18.3885435470        0.4000862065
CA         11.9506683720       20.0102085254       -0.2980432465
HA         11.5085250956       20.2516394213       -1.2658935634
CB         10.8320220491       20.0581659569        0.7622470233
HB2        11.2883424393       20.0220642781        1.7530988804
HB3        10.3129159973       21.0145176518        0.6821870764
CG          9.8081020184       18.9365942385        0.6625370014
CD1         9.9545227011       17.7808990942        1.4574114163
HD1        10.7740302855       17.7066603259        2.1615496877
CE1         9.0504874018       16.7100945821        1.3232505255
HE1         9.1671396368       15.8168518421        1.9209429241
CZ          7.9870544350       16.7953711389        0.4008044907
OH          7.1251300947       15.7537769874        0.2735573067
HH          6.4152359344       15.9443365323       -0.3578625146
CE2         7.8274196816       17.9590522224       -0.3830329196
HE2         7.0113632843       18.0255199843       -1.0894886131
CD2         8.7406200708       19.0255951626       -0.2536061450
HD2         8.6287166635       19.9096795479       -0.8693436232
C          13.0223018193       21.0730465920        0.0023115338
O          14.0172426388       20.7938045987        0.6787952248
N          12.8070773867       22.3056818313       -0.4740151988
H          11.9637512628       22.4598470113       -1.0103456035
CH3        13.7040003949       23.4449363470       -0.2763007862
HH31       13.8120106460       23.6571729355        0.7893722662
HH32       14.6887746520       23.2243042173       -0.6933709468
HH33       13.3012764817       24.3298531504       -0.7727770519
         110
Energy of minimum      2=    -153.2617709     first found at step       32 after                23586 function calls
HH31       -0.1970666999        4.6732036023       -1.1556869505
CH3         0.3417781179        3.7333311377       -1.0454987748
HH32        0.5826256119        3.3350333950       -2.0299882862
HH33       -0.2767609407        3.0190693634       -0.5040102768
C           1.6207100700        3.9777277240       -0.2795303130
O           1.8205252848        3.3997234738        0.7876005659
N           2.4838551189        4.8335565306       -0.8231679277
H           2.2244453154        5.2716921814       -1.6958622565
CA          3.7751701817        5.2210496258       -0.2399738616
HA          3.7199195521        5.1230011110        0.8455518461
CB          4.8694518679        4.2699010964       -0.7563107005
HB2         4.6146216141        3.2494709770       -0.4657367250
HB3         4.8807981513        4.3041173359       -1.8471724424
CG          6.2632979582        4.5800537408       -0.2383769344
CD1         7.1942496004        5.2439457197       -1.0635333401
HD1         6.9251514714        5.5142461966       -2.0776579577
CE1         8.4751239438        5.5642843624       -0.5717323530
HE1         9.1879354398        6.0727347512       -1.2064765909
CZ          8.8284539423        5.2198136120        0.7512657926
OH         10.0651265038        5.5187299789        1.2304284368
HH         10.6075527078        5.9558067179        0.5618013637
CE2         7.8961193110        4.5543831087        1.5761070179
HE2         8.1731330182        4.2918608719        2.5878639046
CD2         6.6157832949        4.2359740273        1.0815873073
HD2         5.9024751582        3.7265277919        1.7185269309
C           4.1243380605        6.6861421274       -0.5598374939
O           3.7471720604        7.2077476739       -1.6139823012
N           4.8667035362        7.3417189892        0.3374019112
H           5.1569289697        6.8429027264        1.1672791832
CA          5.4181951535        8.6891839427        0.1573226382
HA          5.6101765930        8.8542907537       -0.9042764217
CB          4.3931170571        9.7363316474        0.6297590312
HB2         3.5280613751        9.7088271575       -0.0343949972
HB3         4.0472744658        9.4617114216        1.6278346214
CG          4.9271041088       11.1588017466        0.6703629738
CD1         5.2626683527       11.8257358042       -0.5258838829
HD1         5.0961029241       11.3427750066       -1.4813333396
CE1         5.8300142550       13.1156459635       -0.4819433279
HE1         6.0984317854       13.6233134655       -1.3983161509
CZ          6.0489938607       13.7474785877        0.7618240929
OH          6.6050933989       14.9853486790        0.8213669283
HH          6.8827711340       15.3040440953       -0.0519637763
CE2         5.6951482768       13.0868166428        1.9567463827
HE2         5.8661952683       13.5756963965        2.9059744280
CD2         5.1410537801       11.7933478127        1.9106344638
HD2         4.8909526632       11.2836984824        2.8333918806
C           6.7561053144        8.8478752866        0.9040710167
O           6.9346088833        8.3176714425        2.0046213864
N           7.6832719286        9.6061413624        0.3144304644
H           7.4664525671       10.0038970844       -0.5892203561
CA          8.9771347358        9.9772984260        0.8939136827
HA2         8.8107320600       10.5112591933        1.8302684702
HA3         9.5603867044        9.0814463688        1.1082197955
C           9.7883964678       10.8749702070       -0.0484478769
O           9.5621307245       10.8771949665       -1.2627769333
N          10.7264069021       11.6505169192        0.4988533713
H          10.8619222104       11.6137517328        1.5004974836
CA         11.5672652338       12.5840826756       -0.2605373677
HA2        12.2638539764       12.0207052203       -0.8821231062
HA3        10.9367663497       13.1825978375       -0.9195240495
C          12.3762263934       13.5408725552        0.6218968425
O          12.3937838067       13.4128809157        1.8500226216
N          13.0409739757       14.5087731010       -0.0120578225
H          12.9641943638       14.5517822088       -1.0190638944
CA         13.8180254578       15.5751214586        0.6325003859
HA         13.4433458586       15.7254044830        1.6464356762
CB         15.2925351810       15.1497459917        0.7212643110
HB2        15.3528212239       14.2013910169        1.2577443927
HB3        15.6735760839       14.9782869331       -0.2869789306
CG         16.1865764893       16.1517976990        1.4289240995
CD1        16.1504307643       16.2541680587        2.8336736817
HD1        15.4992966474       15.6062760551        3.4084506042
CE1        16.9620058647       17.1976838069        3.4938845495
HE1        16.9399792444       17.2800823331        4.5718929651
CZ         17.8120709919       18.0437773105        2.7495993359
OH         18.5977608325       18.9487976579        3.3916607118
HH         19.1295044337       19.4596802742        2.7678732667
CE2        17.8488837584       17.9399665734        1.3417119608
HE2        18.5002851348       18.5862292757        0.7694425790
CD2        17.0362852667       16.9950100199        0.6843776198
HD2        17.0645702024       16.9209000001       -0.3961712304
C          13.6575853080       16.9038235669       -0.1281697490
O          13.4910984070       16.9043159260       -1.3523441529
N          13.7079791909       18.0298594034        0.5913202197
H          13.9288588303       17.9588213746        1.5743384912
CA         13.4310317921       19.3760870625        0.0702254742
HA         13.5478320931       19.3737875302       -1.0146700516
CB         11.9777454882       19.7693525274        0.3951110387
HB2        11.8769450975       19.8749753420        1.4767806405
HB3        11.7757332881       20.7486199729       -0.0417917581
CG         10.9187467568       18.7963011022       -0.0997828400
CD1        10.4012200085       17.8145397062        0.7697115414
HD1        10.7525308390       17.7566804964        1.7925634372
CE1         9.4306601409       16.9027533956        0.3111762509
HE1         9.0378096988       16.1473189599        0.9764856567
CZ          8.9650283771       16.9741057830       -1.0195054377
OH          8.0185606249       16.0999315531       -1.4581840210
HH          7.8055691807       16.2581781675       -2.3872687022
CE2         9.4813954170       17.9592397060       -1.8901227249
HE2         9.1279021449       18.0166685624       -2.9105470213
CD2        10.4572240764       18.8664732200       -1.4295209465
HD2        10.8542582831       19.6181974006       -2.1008351443
C          14.4059936421       20.4198785288        0.6431587241
O          14.8637753709       20.2961316174        1.7835217556
N          14.7010195405       21.4693471648       -0.1341412638
H          14.2779554505       21.5064214698       -1.0518685298
CH3        15.5935747536       22.5646322446        0.2467748976
HH31       15.2069478911       23.0733349092        1.1322677423
HH32       15.6707782971       23.2863296637       -0.5686636222
HH33       16.5897060969       22.1768635638        0.4697556126
         110
Energy of minimum      3=    -153.2478295     first found at step       24 after                17844 function calls
HH31       -0.3735036355        4.4110725899        0.1619840230
CH3         0.0673783659        3.4952876741        0.5529004675
HH32        0.2431382111        2.7985771419       -0.2653726179
HH33       -0.6093688800        3.0444407451        1.2772764001
C           1.3818774175        3.8201796768        1.2227074033
O           1.5449482211        3.5687206769        2.4155830296
N           2.3164743999        4.3788191877        0.4562485159
H           2.0840546557        4.5618837850       -0.5098362005
CA          3.6539777080        4.7838245230        0.9089245575
HA          3.6138900993        5.0186290011        1.9739527222
CB          4.6314990684        3.6124616461        0.7083494818
HB2         4.2689609356        2.7512676588        1.2719169417
HB3         4.6354196016        3.3322175239       -0.3465040383
CG          6.0557042730        3.9038484160        1.1478989143
CD1         7.0446248619        4.2096908789        0.1904706700
HD1         6.7954945576        4.2182373460       -0.8639386818
CE1         8.3585673790        4.5107552570        0.6005151512
HE1         9.1159805586        4.7444427457       -0.1351852037
CZ          8.6868866299        4.5057402014        1.9739308531
OH          9.9544680448        4.7873331863        2.3769113853
HH         10.5325569308        4.9682244060        1.6248218416
CE2         7.6964719234        4.1977063407        2.9313221339
HE2         7.9544098322        4.1937897456        3.9814394404
CD2         6.3831570785        3.8984383670        2.5181725683
HD2         5.6253047043        3.6641095259        3.2562610820
C           4.1433004534        6.0428796047        0.1699452454
O           3.7982851475        6.2617667116       -0.9956883433
N           4.9640784209        6.8591262296        0.8379661564
H           5.2282625875        6.6009742687        1.7790079149
CA          5.6311196637        8.0376431203        0.2720570352
HA          5.8246899948        7.8592139478       -0.7870771172
CB          4.7087028851        9.2636078275        0.3982345391
HB2         3.7596524599        9.0448449356       -0.0936262623
HB3         4.4963944266        9.4412203190        1.4539260845
CG          5.2803791036       10.5286273511       -0.2179503870
CD1         5.3288392104       10.6625972092       -1.6195713717
HD1         4.9245727385        9.8816433344       -2.2527674803
CE1         5.9086138444       11.8068444703       -2.2016374061
HE1         5.9473696388       11.9061085194       -3.2778871276
CZ          6.4435968374       12.8229466311       -1.3799014949
OH          7.0083416085       13.9252050489       -1.9406349426
HH          6.9778020753       13.8690322612       -2.9048878465
CE2         6.3892042505       12.6916293540        0.0242570288
HE2         6.7990365202       13.4728514356        0.6491271520
CD2         5.8081621129       11.5459613803        0.6034427039
HD2         5.7782425712       11.4448721899        1.6816693864
C           6.9849303012        8.2964019146        0.9599070103
O           7.1681670760        7.9636004238        2.1348286078
N           7.9223962030        8.9213874437        0.2425380289
H           7.6988046014        9.1905296052       -0.7063420522
CA          9.2255928648        9.3501533793        0.7588638321
HA2         9.0899691961        9.8158314818        1.7359513379
HA3         9.8766906589        8.4845877555        0.8821728584
C           9.9221624849       10.3548257533       -0.1661463264
O           9.6479367136       10.4039803983       -1.3688715019
N          10.8191793876       11.1664137798        0.3959694618
H          10.9977262239       11.0691055747        1.3869176418
CA         11.5528616944       12.2251061982       -0.3073780846
HA2        12.2261325419       11.7797799933       -1.0403767881
HA3        10.8458873498       12.8636783086       -0.8385546723
C          12.3798746397       13.1021487354        0.6402556962
O          12.5189078679       12.7899235524        1.8273371015
N          12.9212595392       14.2071681983        0.1222984456
H          12.7567257719       14.4050144972       -0.8551247052
CA         13.6973886797       15.1970987827        0.8812188665
HA         13.4254763492       15.1285134282        1.9359913249
CB         15.1960976709       14.8792887698        0.7555821657
HB2        15.3707413332       13.8612721740        1.1076817434
HB3        15.4794889474       14.9128722249       -0.2978499379
CG         16.0942692826       15.8170116496        1.5423856500
CD1        16.2380898136       15.6483186400        2.9337462852
HD1        15.7235643392       14.8391284235        3.4382443992
CE1        17.0511478255       16.5311251472        3.6716640358
HE1        17.1665159397       16.4061641408        4.7395688837
CZ         17.7217683166       17.5880610669        3.0193342713
OH         18.5091662049       18.4345211696        3.7348853153
HH         18.9114468286       19.1058531912        3.1689438378
CE2        17.5777547803       17.7566170386        1.6246839008
HE2        18.0914499502       18.5649253314        1.1224079447
CD2        16.7648288004       16.8712820436        0.8893737918
HD2        16.6534108028       17.0059055937       -0.1799231111
C          13.3902309526       16.6305585952        0.4145493738
O          13.2137993529       16.8743794309       -0.7830397480
N          13.3465202999       17.5741374525        1.3606860478
H          13.5640707444       17.3034841594        2.3093841724
CA         13.0411264910       18.9941187882        1.1410427027
HA         13.2540590044       19.2545627039        0.1029174538
CB         11.5479205771       19.2561189846        1.4111755269
HB2        11.3146615449       18.9586332546        2.4351038943
HB3        11.3653078905       20.3297515454        1.3417946685
CG         10.5919062807       18.5558951928        0.4594867149
CD1        10.2886540137       19.1434039041       -0.7849248893
HD1        10.7342772653       20.0915909795       -1.0601043067
CE1         9.4080325581       18.4986349936       -1.6751500826
HE1         9.1730640890       18.9444400047       -2.6318875470
CZ          8.8297497152       17.2600542095       -1.3250781173
OH          7.9857830849       16.6439544425       -2.1937970083
HH          7.6736249356       15.7917272205       -1.8518997128
CE2         9.1297932050       16.6712474854       -0.0770429946
HE2         8.6846400788       15.7234168095        0.1926651222
CD2        10.0068982570       17.3222815580        0.8141521381
HD2        10.2353294633       16.8705455749        1.7716748621
C          13.9094066947       19.8942693045        2.0381335503
O          14.2674089414       19.5111716602        3.1565839443
N          14.2251533017       21.1057972462        1.5637601494
H          13.8865631711       21.3518664416        0.6432775497
CH3        15.0280249087       22.0979943616        2.2794356520
HH31       16.0137273286       21.6882136959        2.5091785683
HH32       15.1524356997       22.9926312311        1.6663507075
HH33       14.5355642300       22.3763336832        3.2134267220
         110
Energy of minimum      4=    -153.0819266     first found at step       12 after                 8643 function calls
HH31        1.2716451355        2.2370129104       -1.1774058085
CH3         2.0551675331        1.5155746218       -0.9505230857
HH32        2.4783314721        1.1347898126       -1.8788571829
HH33        1.6369633267        0.6912174099       -0.3747529828
C           3.1410058403        2.1933351642       -0.1482126717
O           3.4208605698        1.7862427414        0.9781734339
N           3.7501192072        3.2260626079       -0.7273976388
H           3.4403422228        3.4969133577       -1.6501785020
CA          4.8195477023        4.0292565255       -0.1200235138
HA          4.7134960070        4.0017799130        0.9658092187
CB          6.1830875602        3.4178100317       -0.4882633356
HB2         6.2235016446        2.3947922095       -0.1108479643
HB3         6.2647814970        3.3666921815       -1.5754598108
CG          7.3784442314        4.1774929026        0.0607167368
CD1         8.1256268777        5.0265723189       -0.7813807857
HD1         7.8624547285        5.1218385088       -1.8280873353
CE1         9.2128234292        5.7590147684       -0.2650035462
HE1         9.7852172001        6.4087842491       -0.9128349021
CZ          9.5557739896        5.6431878962        1.0998379891
OH         10.6084329717        6.3407115802        1.6035471283
HH         11.0439980492        6.8662923026        0.9206892125
CE2         8.8077350985        4.7922778784        1.9417588239
HE2         9.0762071637        4.7066841379        2.9857294463
CD2         7.7207619353        4.0614763426        1.4224455938
HD2         7.1481337194        3.4106061823        2.0724251271
C           4.7411755959        5.5024683885       -0.5604313910
O           4.3161647551        5.8031216106       -1.6804779294
N           5.1759824510        6.4185218350        0.3100360786
H           5.5318154152        6.0958107100        1.1994845042
CA          5.3217108026        7.8514597516        0.0302610505
HA          5.5512856651        7.9840265596       -1.0284433325
CB          3.9984336628        8.5738291271        0.3343486800
HB2         3.2019703228        8.1144673040       -0.2531674553
HB3         3.7498797867        8.4316049784        1.3875063030
CG          4.0205612894       10.0595668935        0.0224259651
CD1         4.1620851663       11.0015060112        1.0617105748
HD1         4.2369521856       10.6685533428        2.0900540166
CE1         4.2141092061       12.3783968501        0.7670482336
HE1         4.3243603688       13.0997690951        1.5652492190
CZ          4.1237491459       12.8169377756       -0.5721942790
OH          4.1737283887       14.1437336806       -0.8643037303
HH          4.2714350171       14.6776963964       -0.0653002980
CE2         3.9800705559       11.8729878465       -1.6116081628
HE2         3.9108633568       12.2146779639       -2.6352693228
CD2         3.9292583708       10.4969407392       -1.3137925104
HD2         3.8209666306        9.7750367288       -2.1145606300
C           6.4802300949        8.4552040013        0.8453141485
O           6.7321765952        8.0399939178        1.9806703174
N           7.1729611273        9.4478287020        0.2812661643
H           6.9059433840        9.7575435836       -0.6436022285
CA          8.2823366004       10.1608739076        0.9230014521
HA2         7.9243364869       10.6350383745        1.8375202657
HA3         9.0646737250        9.4508828171        1.1931376884
C           8.8992766359       11.2422478657        0.0278115180
O           8.5322002102       11.3838056543       -1.1429699564
N           9.8424232583       12.0102472018        0.5764651381
H          10.0981084502       11.8422448567        1.5407098259
CA         10.5448307526       13.0956723160       -0.1186443871
HA2        11.0620901903       12.6930561386       -0.9902281513
HA3         9.8198956261       13.8326264304       -0.4660531194
C          11.5742947862       13.8115672247        0.7641752129
O          11.7512154218       13.4672982310        1.9371312405
N          12.2556730990       14.8112667154        0.1996473448
H          12.0444917305       15.0462098857       -0.7606807370
CA         13.2731114373       15.6299590143        0.8732140646
HA         13.0561012674       15.6616791830        1.9424109015
CB         14.6546910521       14.9797395268        0.6790234408
HB2        14.6314248346       13.9716933059        1.0961456019
HB3        14.8536481904       14.8850074688       -0.3899579471
CG         15.7982283367       15.7388381874        1.3291092183
CD1        15.9907751931       15.6614354539        2.7227299844
HD1        15.3420411089       15.0368867055        3.3254599192
CE1        17.0239720397       16.3975044353        3.3363335561
HE1        17.1707152827       16.3374558943        4.4061264789
CZ         17.8668922852       17.2176199510        2.5542832059
OH         18.8664099257       17.9297979512        3.1390730806
HH         18.8893618796       17.7869676988        4.0939603770
CE2        17.6751743868       17.2918938844        1.1580966991
HE2        18.3244890379       17.9202869537        0.5643143551
CD2        16.6431277348       16.5528995661        0.5472684962
HD2        16.4959606800       16.6190601083       -0.5240275796
C          13.2685883933       17.0794787502        0.3528667270
O          12.9406512473       17.3282826115       -0.8116173934
N          13.6553236728       18.0320773355        1.2067142453
H          13.9352059867       17.7502784817        2.1362993220
CA         13.8551478021       19.4455166518        0.8659804247
HA         14.1583038331       19.5175753183       -0.1799184510
CB         12.5312475376       20.2081308760        1.0410557177
HB2        11.7609789471       19.7194465429        0.4422992875
HB3        12.2201379148       20.1446893436        2.0852357745
CG         12.5954366038       21.6668374936        0.6250636024
CD1        12.6735048413       22.6815915346        1.6004267390
HD1        12.6770039684       22.4241872598        2.6528760043
CE1        12.7523839525       24.0334894742        1.2108865751
HE1        12.8134387708       24.8108094247        1.9603683511
CZ         12.7533019726       24.3738538471       -0.1596072374
OH         12.8298587808       25.6758905841       -0.5431840725
HH         12.8781190415       26.2663161101        0.2198781702
CE2        12.6744610789       23.3569639478       -1.1352257790
HE2        12.6747148774       23.6234646948       -2.1833132353
CD2        12.5956826236       22.0062647261       -0.7424841466
HD2        12.5343136160       21.2282903262       -1.4942577209
C          14.9725420787       20.0646500609        1.7267148053
O          15.1293526817       19.7076286219        2.8989866896
N          15.7394796094       21.0018848735        1.1556827209
H          15.5304173598       21.2605807507        0.2011526710
CH3        16.8469137861       21.6900954349        1.8189481390
HH31       17.5874136784       20.9643481521        2.1617107633
HH32       17.3265149676       22.3831930793        1.1253900384
HH33       16.4772638357       22.2512604331        2.6794428943
         110
Energy of minimum      5=    -152.9676261     first found at step        0 after                  645 function calls
HH31        0.7662024449        2.1865070837       -0.4126704318
CH3         1.5007535824        1.4499594965       -0.0905085535
HH32        1.9482936483        0.9772697626       -0.9635154393
HH33        1.0145845266        0.6943177364        0.5248094028
C           2.5795222480        2.1385103280        0.7121509648
O           2.7842675163        1.8099239794        1.8795827408
N           3.2667659454        3.0925280608        0.0872128540
H           3.0155551704        3.3030705289       -0.8685123604
CA          4.3447797046        3.8912476382        0.6852477297
HA          4.1855128594        3.9552881094        1.7630081882
CB          5.6919819079        3.1899760440        0.4364041099