         110
Energy of minimum      1=    -153.4419363     first found at step       96 after                65389 function calls
HH31        1.8939667754        0.4744979819       -1.6682998300
CH3         2.0065751437        1.5192466769       -1.9542909477
HH32        1.1812669567        2.1006241871       -1.5459727901
HH33        2.0074042849        1.6024743062       -3.0400821913
C           3.3109474915        2.0544402627       -1.4118001299
O           4.0521524671        1.3241197929       -0.7560172810
N           3.5893225670        3.3277003309       -1.6843749834
H           2.9110204820        3.8530224048       -2.2180298446
CA          4.7931173721        4.0452088378       -1.2444342818
HA          5.1564207838        3.5987550764       -0.3171991474
CB          5.8910601763        3.8985360084       -2.3143131944
HB2         6.1316061113        2.8405231498       -2.4298225622
HB3         5.5007117908        4.2499341018       -3.2711074635
CG          7.1724880110        4.6523448226       -2.0005289924
CD1         8.0840742069        4.1313369702       -1.0609526205
HD1         7.8892440228        3.1752827783       -0.5896343085
CE1         9.2468320869        4.8542746051       -0.7269345634
HE1         9.9447117075        4.4541999644       -0.0041354813
CZ          9.4981957158        6.1058715002       -1.3311242576
OH         10.6152599452        6.8112882346       -1.0107387634
HH         11.1554319863        6.3411839968       -0.3628638891
CE2         8.5870495164        6.6247678334       -2.2754504345
HE2         8.7855987604        7.5823742001       -2.7364111549
CD2         7.4276463981        5.8980764463       -2.6100888767
HD2         6.7269190635        6.3052585897       -3.3290563528
C           4.4993379106        5.5304352492       -0.9640610708
O           3.6341501202        6.1345030767       -1.6059132344
N           5.2484203096        6.1274560018       -0.0323193148
H           5.9462578172        5.5699298278        0.4409292998
CA          5.2850491796        7.5705501007        0.2269813117
HA          5.0415412107        8.1018749880       -0.6947261953
CB          4.2345087470        7.9368226536        1.2875694210
HB2         3.2537372198        7.6060043232        0.9422699553
HB3         4.4555532615        7.3961208809        2.2094627596
CG          4.1576856523        9.4234063711        1.5859046299
CD1         3.4993481597       10.2860319528        0.6870250420
HD1         3.0306943728        9.8845926488       -0.2037347201
CE1         3.4498302374       11.6709352249        0.9421200399
HE1         2.9444529010       12.3317827036        0.2510283346
CZ          4.0622667184       12.1970509736        2.1007267456
OH          4.0205649815       13.5323338947        2.3526905724
HH          3.5414289744       14.0071586288        1.6612464688
CE2         4.7206304648       11.3320741741        3.0008654252
HE2         5.1884121697       11.7405716061        3.8861195606
CD2         4.7677965128        9.9478266471        2.7433112426
HD2         5.2792429556        9.2888559804        3.4347036459
C           6.6946732927        8.0057848274        0.6667004511
O           7.3727125245        7.2819589109        1.4025751280
N           7.1329135517        9.1900846175        0.2326753375
H           6.5233664316        9.7472189681       -0.3506860714
CA          8.4488160823        9.7565508480        0.5461320996
HA2         9.2273970026        9.0548112005        0.2451273524
HA3         8.5285371727        9.9107026061        1.6227161661
C           8.7098512236       11.0949941141       -0.1545805383
O           7.8746902274       11.5849053398       -0.9215817887
N           9.8741941409       11.6921385215        0.1062808833
H          10.5151722695       11.2373996519        0.7432321813
CA         10.3031290063       12.9734547409       -0.4671028090
HA2        10.3264815752       12.8942086597       -1.5545294503
HA3         9.5846074578       13.7490526804       -0.1997559023
C          11.6906375410       13.4156801359        0.0134359192
O          12.3349643799       12.7252738441        0.8095751286
N          12.1524471846       14.5707769541       -0.4711816962
H          11.5608922984       15.0888066883       -1.1065808778
CA         13.4470106374       15.1761096462       -0.1294215609
HA         13.7366724595       14.8581467317        0.8737116076
CB         14.5143978816       14.6800261447       -1.1213114806
HB2        14.5695059161       13.5917158605       -1.0644441990
HB3        14.2018698152       14.9374574942       -2.1348865838
CG         15.9037899215       15.2416509478       -0.8749693465
CD1        16.3931035276       16.2964950935       -1.6722780673
HD1        15.7901348136       16.6924466082       -2.4805858231
CE1        17.6637720194       16.8467963928       -1.4136002044
HE1        18.0432864220       17.6578473289       -2.0195946639
CZ         18.4508432460       16.3420837571       -0.3565318638
OH         19.6780343627       16.8738525670       -0.1127352608
HH         20.1102066762       16.4368901864        0.6322662761
CE2        17.9627129930       15.2815200863        0.4382262136
HE2        18.5653013174       14.8918177329        1.2473088668
CD2        16.6901040929       14.7348210927        0.1786324655
HD2        16.3155293812       13.9246031238        0.7929945111
C          13.3696423971       16.7142556664       -0.1273433103
O          12.5846869564       17.3051618179       -0.8757729077
N          14.2000023450       17.3626260528        0.6949595155
H          14.8335044952       16.8128636435        1.2591479807
CA         14.3804137106       18.8183124541        0.7425743606
HA         14.1890627579       19.2308714605       -0.2494840555
CB         13.3680120364       19.4293924807        1.7257158544
HB2        12.3626055480       19.1235236039        1.4320533622
HB3        13.5524741354       19.0251956776        2.7225733070
CG         13.3993621148       20.9460811431        1.7862792802
CD1        14.0170412357       21.6017611194        2.8705805983
HD1        14.4629725381       21.0244740515        3.6717073594
CE1        14.0615069683       23.0094858415        2.9144578819
HE1        14.5368158288       23.5110604953        3.7464321099
CZ         13.4862412649       23.7663581998        1.8702760807
OH         13.5258251377       25.1248510757        1.9052400283
HH         13.9752773272       25.4444935685        2.6983458465
CE2        12.8675274100       23.1087028286        0.7854740893
HE2        12.4278762657       23.6933835401       -0.0109962397
CD2        12.8247150823       21.7011034018        0.7445884144
HD2        12.3480245861       21.1996189440       -0.0893501756
C          15.8255079299       19.1794624705        1.1350451603
O          16.4502230842       18.4763169967        1.9360399753
N          16.3535822938       20.2809266502        0.5867803163
H          15.7691676066       20.8196920999       -0.0376788116
CH3        17.7090281333       20.7696903523        0.8394487276
HH31       17.8280979194       21.0130554599        1.8970848921
HH32       17.9003869523       21.6665019021        0.2473886986
HH33       18.4396650468       20.0047528168        0.5682004383
         110
Energy of minimum      2=    -153.3189191     first found at step        8 after                 6076 function calls
HH31        2.4816870648        1.0876152570       -0.6712978938
CH3         2.5045323094        2.1237296667       -1.0058370125
HH32        1.6688422515        2.6674127532       -0.5677868535
HH33        2.4313065650        2.1584261517       -2.0917947759
C           3.8009248590        2.7667987283       -0.5723116126
O           4.6300430591        2.1164917607        0.0620917569
N           3.9740778596        4.0421588146       -0.9135675151
H           3.2292654411        4.4976647204       -1.4221078136
CA          5.1514326026        4.8558210067       -0.5829955427
HA          5.6020111967        4.4758274642        0.3355137046
CB          6.1872678962        4.7338859811       -1.7160488072
HB2         6.4916881794        3.6898078570       -1.8045083856
HB3         5.7143785518        5.0160173043       -2.6584316086
CG          7.4314877380        5.5832250104       -1.5178408255
CD1         7.5621544748        6.8146225972       -2.1924537030
HD1         6.7913910493        7.1426258974       -2.8795255405
CE1         8.6880398718        7.6298660564       -1.9643336248
HE1         8.7913604344        8.5769503838       -2.4754819127
CZ          9.6901289267        7.2143133366       -1.0619334893
OH         10.7744118680        8.0049425531       -0.8443838923
HH         11.3851322832        7.6005383322       -0.2150955139
CE2         9.5633024967        5.9770786588       -0.3926883369
HE2        10.3309870273        5.6561454275        0.2981059258
CD2         8.4338594861        5.1653848857       -0.6201197581
HD2         8.3347887237        4.2205530166       -0.0989508730
C           4.7752623746        6.3296266231       -0.3438185169
O           3.8321979457        6.8465825588       -0.9511144044
N           5.5390464241        7.0152877020        0.5118702793
H           6.3016920617        6.5262645280        0.9602061419
CA          5.4934191822        8.4677921398        0.7099806539
HA          5.1567099926        8.9404820079       -0.2143234748
CB          4.4891925039        8.8113486571        1.8217971073
HB2         3.5134821934        8.4019850367        1.5553462640
HB3         4.8041917014        8.3278562946        2.7481431905
CG          4.3300887183       10.3015174721        2.0645315009
CD1         4.9746707918       10.9157648955        3.1572602621
HD1         5.5723886090       10.3231296520        3.8394334239
CE1         4.8495103478       12.3040453412        3.3614962411
HE1         5.3431497583       12.7812988421        4.1969087177
CZ          4.0783156832       13.0831276459        2.4725830081
OH          3.9615822737       14.4227058770        2.6728542439
HH          3.4085912138       14.8338852640        1.9959077963
CE2         3.4314578552       12.4669844129        1.3788791173
HE2         2.8396745898       13.0619014255        0.6965306238
CD2         3.5591603459       11.0783139310        1.1769661300
HD2         3.0638262186       10.6077941225        0.3358371753
C           6.8949550699        9.0135142380        1.0381673246
O           7.6657562208        8.3690931507        1.7563312226
N           7.2232104322       10.2034771996        0.5290164270
H           6.5415751092       10.6930003187       -0.0348957028
CA          8.5145285152       10.8682665171        0.7322175133
HA2         8.6511633525       11.0750410514        1.7941623898
HA3         9.3186632539       10.2063174225        0.4090748151
C           8.6390368134       12.1884331423       -0.0373436253
O           7.7257975568       12.5879938819       -0.7668253924
N           9.7740295804       12.8715600781        0.1221906033
H          10.4833442555       12.4885599591        0.7333638255
CA         10.0776232909       14.1514424035       -0.5291561466
HA2        10.0379016743       14.0256021754       -1.6117032229
HA3         9.3260918402       14.8894301328       -0.2465350997
C          11.4591881120       14.7045365046       -0.1589948748
O          12.1979305250       14.0938618210        0.6200948722
N          11.8096667081       15.8647623855       -0.7188440237
H          11.1453413892       16.3141526625       -1.3342670343
CA         13.0788132959       16.5683511772       -0.4875472158
HA         13.4528920272       16.3132282845        0.5055462292
CB         14.1112899529       16.1013226237       -1.5284710096
HB2        14.2292473334       15.0196286671       -1.4462607628
HB3        13.7255283865       16.3110135280       -2.5277120037
CG         15.4809062043       16.7405243670       -1.3818393923
CD1        15.8722778328       17.7848653166       -2.2444805543
HD1        15.2034379461       18.1223667924       -3.0271927985
CE1        17.1317586088       18.3971668022       -2.0893900569
HE1        17.4307062472       19.1976755133       -2.7522062883
CZ         18.0051530051       17.9639581251       -1.0678138967
OH         19.2254738791       18.5440668652       -0.9171033291
HH         19.3713444850       19.2362996386       -1.5744416012
CE2        17.6127456564       16.9173267099       -0.2058543918
HE2        18.2866916332       16.5886360696        0.5732988393
CD2        16.3521824304       16.3079451040       -0.3627035184
HD2        16.0541740153       15.5054919944        0.3016180056
C          12.8942574604       18.0963008991       -0.5394345491
O          12.0269604492       18.5996248185       -1.2605583317
N          13.7186658607       18.8349671016        0.2094849148
H          14.4249108001       18.3566560882        0.7520178815
CA         13.7687572013       20.3020903891        0.2185477583
HA         13.4895152548       20.6714441638       -0.7696805354
CB         12.7562042118       20.8417053990        1.2431413058
HB2        11.7700755939       20.4358423526        1.0119650410
HB3        13.0305566487       20.4821668788        2.2364211529
CG         12.6454675787       22.3556827592        1.2710297103
CD1        13.2441340109       23.0934509877        2.3124187361
HD1        13.7770634993       22.5809418342        3.1043951165
CE1        13.1565083585       24.4997749658        2.3248844462
HE1        13.6174229673       25.0644624968        3.1238592255
CZ         12.4674708468       25.1728645482        1.2922855975
OH         12.3792969568       26.5295092080        1.2971027782
HH         12.8300813832       26.9097217550        2.0622347514
CE2        11.8678267882       24.4330248638        0.2505721727
HE2        11.3405945971       24.9536818656       -0.5371173711
CD2        11.9571915737       23.0270569799        0.2410107498
HD2        11.4945926757       22.4622873146       -0.5597537332
C          15.1917828922       20.8051751601        0.5267704151
O          15.9317984320       20.1663544603        1.2820083643
N          15.5720231012       21.9566497138       -0.0409745995
H          14.8991947874       22.4349799255       -0.6244269193
CH3        16.8778847163       22.5885488725        0.1473003842
HH31       17.0135722000       22.8612465134        1.1957575116
HH32       17.6736825538       21.9003226214       -0.1445032608
HH33       16.9492602694       23.4903050446       -0.4636233868
         110
Energy of minimum      3=    -153.3086854     first found at step        7 after                 5386 function calls
HH31        2.4522396570        1.1274166210       -0.7273336784
CH3         2.4823669280        2.1621135213       -1.0656616487
HH32        1.6403701351        2.7089006515       -0.6438529567
HH33        2.4273434199        2.1924731430       -2.1528235471
C           3.7723908862        2.8049181869       -0.6131620641
O           4.5897334853        2.1559165804        0.0376473299
N           3.9533064758        4.0785956074       -0.9566672260
H           3.2178366237        4.5331825890       -1.4794295083
CA          5.1263108859        4.8917558455       -0.6097972973
HA          5.5608905660        4.5148078596        0.3176322970
CB          6.1806912952        4.7635896785       -1.7249124903
HB2         6.4847683761        3.7186685665       -1.8041159791
HB3         5.7240577397        5.0426952958       -2.6761716071
CG          7.4228895024        5.6116779354       -1.5093957649
CD1         7.5668676130        6.8401565343       -2.1866169501
HD1         6.8081568061        7.1667234182       -2.8876470713
CE1         8.6902888055        7.6543662367       -1.9431668563
HE1         8.8037346360        8.5992081196       -2.4563102665
CZ          9.6766139367        7.2406836220       -1.0227227514
OH         10.7586069942        8.0302685051       -0.7904808517
HH         11.3582169064        7.6272425777       -0.1497299477
CE2         9.5365195156        6.0063765810       -0.3507266508
HE2        10.2921262940        5.6868752250        0.3539097353
CD2         8.4095359891        5.1957263278       -0.5935601411
HD2         8.3001970752        4.2531452411       -0.0703723686
C           4.7486062763        6.3671077595       -0.3829204801
O           3.8166863154        6.8830608880       -1.0080085479
N           5.4990993897        7.0550463040        0.4826426985
H           6.2532220564        6.5666034827        0.9457752131
CA          5.4524985110        8.5084086419        0.6741121120
HA          5.1315707834        8.9779008647       -0.2574077105
CB          4.4308825744        8.8578470308        1.7680687269
HB2         3.4592422409        8.4480116791        1.4878218370
HB3         4.7304707238        8.3782633927        2.7015324372
CG          4.2690585601       10.3491838223        2.0016470673
CD1         4.8995765282       10.9685176343        3.0998717055
HD1         5.4884573599       10.3781365073        3.7917258118
CE1         4.7722975870       12.3577009411        3.2982980304
HE1         5.2578263321       12.8317071659        4.1404668560
CZ          4.0112953181       13.1322990551        2.3955466263
OH          3.8846187540       14.4732597307        2.5799335699
HH          4.3631086996       14.7683129935        3.3654867156
CE2         3.3794598930       12.5107963687        1.2970990503
HE2         2.7978289610       13.1089637865        0.6091004355
CD2         3.5092793795       11.1217241739        1.1010650825
HD2         3.0245445161       10.6483233439        0.2554744091
C           6.8494092547        9.0530978584        1.0229284557
O           7.6058053944        8.4119528260        1.7591149110
N           7.1897646601       10.2384170763        0.5109126149
H           6.5195899317       10.7254346217       -0.0686908281
CA          8.4797454230       10.9005370238        0.7307548507
HA2         8.5964725333       11.1206733201        1.7923808721
HA3         9.2871474411       10.2310858434        0.4321555720
C           8.6252367692       12.2099072518       -0.0534190304
O           7.7261637685       12.6062530105       -0.8019851744
N           9.7623337643       12.8873668848        0.1150471632
H          10.4594611253       12.5074505090        0.7419640404
CA         10.0849987675       14.1565162541       -0.5480335053
HA2        10.0607762614       14.0168787965       -1.6293475774
HA3         9.3346320944       14.9033943413       -0.2864606515
C          11.4647662555       14.7046399360       -0.1640299304
O          12.1867498555       14.0994978406        0.6348368805
N          11.8325622888       15.8543848104       -0.7342959365
H          11.1812328968       16.3000015693       -1.3661371232
CA         13.1032607774       16.5518088079       -0.4930561484
HA         13.4600560899       16.3077876271        0.5091450131
CB         14.1481040082       16.0627948321       -1.5112986134
HB2        14.2566217215       14.9815140228       -1.4123539790
HB3        13.7793745355       16.2613843139       -2.5192003331
CG         15.5200808837       16.6939217590       -1.3522795014
CD1        15.9325666629       17.7232495716       -2.2230891677
HD1        15.2784342012       18.0547079941       -3.0206723531
CE1        17.1940906963       18.3284050088       -2.0569511330
HE1        17.5092475910       19.1173903878       -2.7260457797
CZ         18.0483455229       17.9030784526       -1.0160615662
OH         19.2705408740       18.4762695082       -0.8544659030
HH         19.4317458120       19.1581860674       -1.5189663886
CE2        17.6348174583       16.8714586174       -0.1459177421
HE2        18.2941791995       16.5487209598        0.6480613852
CD2        16.3722604753       16.2692055798       -0.3138714751
HD2        16.0580072972       15.4782865255        0.3567658406
C          12.9310575920       18.0802017680       -0.5688707052
O          12.0787451547       18.5797882861       -1.3101756143
N          13.7494316759       18.8231550905        0.1824229850
H          14.4436467625       18.3472755899        0.7423420600
CA         13.8104794881       20.2898541816        0.1719690001
HA         13.5492668251       20.6474351535       -0.8254766432
CB         12.7864121949       20.8511422855        1.1732083703
HB2        11.8009091417       20.4493585999        0.9324380092
HB3        13.0427360447       20.5034884250        2.1754941338
CG         12.6867265350       22.3661349977        1.1784295142
CD1        13.2749527586       23.1139407109        2.2186080909
HD1        13.7918064157       22.6086279962        3.0257183441
CE1        13.1977958286       24.5209083973        2.2102552222
HE1        13.6506919269       25.0932860644        3.0083428933
CZ         12.5297575372       25.1845725018        1.1579445568
OH         12.4517935661       26.5417642095        1.1426235142
HH         12.8936845844       26.9292938385        1.9092708051
CE2        11.9405428099       24.4346980539        0.1174558480
HE2        11.4293849889       24.9481758971       -0.6853959292
CD2        12.0193981276       23.0281143530        0.1287332854
HD2        11.5648488714       22.4556436705       -0.6711724118
C          15.2323660591       20.7867033113        0.4951947717
O          15.9557935676       20.1530850223        1.2706173577
N          15.6300278918       21.9272793485       -0.0825262583
H          14.9699149637       22.4023347803       -0.6829326468
CH3        16.9375930749       22.5521090043        0.1171728971
HH31       17.0591793946       22.8384747568        1.1637142014
HH32       17.7325447853       21.8540086307       -0.1526541111
HH33       17.0252140472       23.4446584219       -0.5050527625
         110
Energy of minimum      4=    -153.0919694     first found at step       94 after                64042 function calls
HH31        1.2258085984        0.8037442252       -0.9940458511
CH3         1.4239184858        1.7971668643       -1.3938394806
HH32        0.6909478392        2.5011075182       -1.0025881485
HH33        1.3600895127        1.7727167485       -2.4806682640
C           2.8092297469        2.2398911755       -0.9851657332
O           3.5152496661        1.5021985578       -0.2995038401
N           3.1958739377        3.4429086177       -1.4049951175
H           2.5396692755        3.9830951216       -1.9512914711
CA          4.4927176894        4.0671536531       -1.1113520337
HA          4.8711554290        3.6755007317       -0.1656102295
CB          5.4936678163        3.7007792470       -2.2215450487
HB2         5.5990654446        2.6152665258       -2.2561592367
HB3         5.0862454153        4.0186532468       -3.1829217410
CG          6.8741015876        4.3096505294       -2.0454834113
CD1         7.7653873272        3.7696741004       -1.0973394586
HD1         7.4767194566        2.9046003157       -0.5122513432
CE1         9.0333516416        4.3540654721       -0.9075873726
HE1         9.7223729920        3.9436158836       -0.1822870850
CZ          9.4136218407        5.4823920063       -1.6656849053
OH         10.6409327877        6.0384932701       -1.4845280006
HH         10.7806258261        6.7882583168       -2.0766464919
CE2         8.5203806303        6.0231928456       -2.6162092966
HE2         8.8096862739        6.8865028219       -3.1997497209
CD2         7.2533701915        5.4362157323       -2.8039979430
HD2         6.5688246961        5.8569517345       -3.5308449765
C           4.3662850053        5.5948583766       -0.9678009654
O           3.5229772125        6.2207271089       -1.6179259919
N           5.2216000989        6.1978214037       -0.1366519185
H           5.9002117606        5.6231006125        0.3440451073
CA          5.3609878583        7.6489622495        0.0296207581
HA          5.1141224073        8.1387856272       -0.9139173400
CB          4.3776671812        8.1421076993        1.1045427026
HB2         3.3655616346        7.8531932324        0.8169516679
HB3         4.6033518846        7.6427551052        2.0483965149
CG          4.3989982127        9.6453262704        1.3169367118
CD1         3.7773062176       10.4947770987        0.3802234969
HD1         3.2651023358       10.0732426054       -0.4766331106
CE1         3.8212463205       11.8924862294        0.5532508174
HE1         3.3440833849       12.5431945106       -0.1668982776
CZ          4.4907693676       12.4446108584        1.6673165138
OH          4.5393994770       13.7922083808        1.8399427524
HH          4.0767056751       14.2558694133        1.1299921655
CE2         5.1116933615       11.5928864439        2.6058509511
HE2         5.6231611906       12.0212461399        3.4568820152
CD2         5.0652594165       10.1958391322        2.4305115036
HD2         5.5486159759        9.5468191413        3.1508865945
C           6.8095801483        8.0242090944        0.3928493347
O           7.4968680517        7.2721803955        1.0906926696
N           7.2698336018        9.1938447966       -0.0582396289
H           6.6518972429        9.7753917544       -0.6082958587
CA          8.6066270129        9.7285782656        0.2208928801
HA2         9.3618915861        9.0306921006       -0.1418849196
HA3         8.7336026686        9.8355070079        1.2987644713
C           8.8558001641       11.0932273348       -0.4325716210
O           8.0260994311       11.5914504119       -1.1999738528
N          10.0034321580       11.7033057979       -0.1307390068
H          10.6407948641       11.2410378869        0.5044329957
CA         10.4165761187       13.0115148327       -0.6528296489
HA2        10.4658548231       12.9683251103       -1.7414138804
HA3         9.6752097657       13.7623709676       -0.3772898541
C          11.7828379878       13.4676766344       -0.1266125523
O          12.4270410157       12.7631336519        0.6571407048
N          12.2265898919       14.6505451074       -0.5582070884
H          11.6359860696       15.1780338944       -1.1866691184
CA         13.4986780006       15.2728651880       -0.1662454679
HA         13.7750010529       14.9243983416        0.8304988217
CB         14.5982534511       14.8395394159       -1.1523590755
HB2        14.6786227954       13.7514617864       -1.1345558305
HB3        14.3007473695       15.1273362189       -2.1622807478
CG         15.9681345158       15.4240877729       -0.8552899497
CD1        16.4482309672       16.5191653491       -1.6023760722
HD1        15.8528606130       16.9307099230       -2.4085236014
CE1        17.6994490047       17.0891729879       -1.2959634788
HE1        18.0717287575       17.9309743427       -1.8632744646
CZ         18.4762624967       16.5640348526       -0.2412601751
OH         19.6847806404       17.1150720032        0.0486585158
HH         20.1117575209       16.6609281595        0.7863451314
CE2        17.9975419345       15.4633661713        0.5030923391
HE2        18.5923609024       15.0580388729        1.3102459353
CD2        16.7443195358       14.8969400427        0.1958509329
HD2        16.3767854866       14.0557786477        0.7716699731
C          13.3839465744       16.8076099464       -0.1089279672
O          12.6005892100       17.4075710019       -0.8518103407
N          14.1810480445       17.4440047038        0.7546069136
H          14.8158531906       16.8884991078        1.3116621745
CA         14.3249531218       18.9007154109        0.8600452513
HA         14.1440745683       19.3456553847       -0.1199092525
CB         13.2779475074       19.4503312331        1.8432216433
HB2        12.2865671188       19.1319988768        1.5169284604
HB3        13.4517282373       19.0134285170        2.8281286239
CG         13.2708128660       20.9639904047        1.9606312272
CD1        13.8469803050       21.5927839059        3.0828686841
HD1        14.2887628495       20.9974158090        3.8728965693
CE1        13.8545739346       22.9983995755        3.1782874550
HE1        14.2962347983       23.4864925879        4.0362436628
CZ         13.2854413562       23.7804480738        2.1504645359
OH         13.2956992379       25.1365371440        2.2465774986
HH         12.8757649118       25.5479193029        1.4800160284
CE2        12.7078291816       23.1499834287        1.0265538530
HE2        12.2701913170       23.7470811505        0.2380443499
CD2        12.7017062767       21.7439374027        0.9341874730
HD2        12.2568781752       21.2620635235        0.0714932196
C          15.7524556465       19.2807329912        1.2965889176
O          16.3772003289       18.5631633788        2.0846646780
N          16.2651404983       20.4136776510        0.8003320556
H          15.6810385173       20.9613876529        0.1834189380
CH3        17.6030744772       20.9239611863        1.0995565816
HH31       17.6946641956       21.1306077969        2.1676913260
HH32       17.7850182282       21.8463105902        0.5449455252
HH33       18.3571808435       20.1867198439        0.8161206223
         110
Energy of minimum      5=    -152.9676261     first found at step        0 after                  645 function calls
HH31        1.2754457589        0.8750824631       -0.9782666678
CH3         1.4903817287        1.8611714391       -1.3874146460
HH32        0.7526055886        2.5755604652       -1.0252121019
HH33        1.4538417452        1.8210411566       -2.4750373326
C           2.8679344323        2.3009213377       -0.9502934283
O           3.5513535598        1.5689089644       -0.2362326840
N           3.2732811786        3.4950601754       -1.3777601863
H           2.6347891701        4.0313342449       -1.9483596491
CA          4.5665419043        4.1151784477       -1.0605183783
HA          4.9182918273        3.7351375305       -0.0998542282
CB          5.5926679078        3.7259238864       -2.1395017365