         110
Energy of minimum      1=    -153.7695266     first found at step       56 after                39283 function calls
HH31       -0.6644116617        2.9555962202       -0.0206129676
CH3        -0.1506394150        3.6864468138       -0.6434018220
HH32       -0.7364128540        4.6033016144       -0.6892490678
HH33       -0.0241489862        3.2854983865       -1.6479458934
C           1.2062448752        3.9897281074       -0.0526489097
O           1.5661301414        3.4332654944        0.9835038753
N           1.9563906287        4.8714879293       -0.7105139043
H           1.5684114286        5.2881826588       -1.5451903858
CA          3.2961376763        5.3157810915       -0.3037668238
HA          3.3870815084        5.2282719351        0.7802553375
CB          4.3507781284        4.4020954307       -0.9528489589
HB2         4.1746393967        3.3753662524       -0.6280946684
HB3         4.2208222824        4.4271515151       -2.0362524784
CG          5.7865756112        4.7686165596       -0.6194177034
CD1         6.5761264350        5.4651734074       -1.5573458468
HD1         6.1672114494        5.7219138498       -2.5272929103
CE1         7.8969780496        5.8354524028       -1.2357855792
HE1         8.5012451840        6.3688246757       -1.9568294433
CZ          8.4324606332        5.5082167517        0.0291665784
OH          9.7088052935        5.8550974632        0.3437966823
HH         10.1419903392        6.3118851525       -0.3883697164
CE2         7.6416006996        4.8098544195        0.9668521242
HE2         8.0578244721        4.5607421704        1.9332838830
CD2         6.3207872351        4.4417649413        0.6426050990
HD2         5.7164321288        3.9071865838        1.3657922693
C           3.5410191283        6.7894569774       -0.6764056537
O           3.0136351817        7.2810490151       -1.6792902441
N           4.3606270337        7.4870114238        0.1158308537
H           4.7758654660        7.0111766081        0.9051441167
CA          4.8272522232        8.8539384868       -0.1422616057
HA          4.8854697196        9.0096910161       -1.2209023229
CB          3.8194698554        9.8629440312        0.4373201414
HB2         2.8576400119        9.7293805087       -0.0600428168
HB3         3.6733163765        9.6476709732        1.4972437753
CG          4.2455634596       11.3117407848        0.2794277837
CD1         4.2138798713       11.9213753393       -0.9908364499
HD1         3.8345727306       11.3737876692       -1.8454706773
CE1         4.6945906190       13.2357148863       -1.1570455737
HE1         4.6839515088       13.6969676491       -2.1352057530
CZ          5.2087542162       13.9439570369       -0.0487336359
OH          5.7129501947       15.1977524820       -0.2070562197
HH          5.6099998771       15.5024890629       -1.1183314442
CE2         5.2175378244       13.3403094824        1.2267483791
HE2         5.6077106703       13.8866794044        2.0741789275
CD2         4.7390206525       12.0262256472        1.3893039764
HD2         4.7708626498       11.5599701510        2.3666625958
C           6.2365578327        9.0803183225        0.4391138631
O           6.5911395576        8.5098771163        1.4751625079
N           7.0305719068        9.9332790304       -0.2133975299
H           6.6688288539       10.3820329344       -1.0442773264
CA          8.3721768187       10.3405675987        0.2162581853
HA2         8.3157897839       10.7667203295        1.2186027732
HA3         9.0274367733        9.4698239504        0.2513032788
C           8.9963433384       11.3829401050       -0.7203694235
O           8.4623830763       11.6627309962       -1.7987025874
N          10.1293386024       11.9617971539       -0.3176043619
H          10.5233936108       11.6871159569        0.5721737561
CA         10.8381866633       13.0005350995       -1.0744465880
HA2        11.2151687776       12.5805313649       -2.0073899349
HA3        10.1383370931       13.7996199419       -1.3228020964
C          12.0176456236       13.6146074876       -0.3121629363
O          12.4788052413       13.0640835815        0.6923046519
N          12.4947568694       14.7661645432       -0.7899442312
H          12.0485641685       15.1545668041       -1.6091463129
CA         13.5430207073       15.5832743705       -0.1639732431
HA         13.7223447195       15.2171338031        0.8481066511
CB         14.8508747719       15.4396625992       -0.9563116416
HB2        15.1105231139       14.3814094097       -1.0159725768
HB3        14.6897280081       15.7946437004       -1.9756504243
CG         16.0250216525       16.1836869053       -0.3468513795
CD1        16.6780526168       15.6562113802        0.7847558167
HD1        16.3548680415       14.7120723829        1.2070027103
CE1        17.7532570389       16.3544021653        1.3688401988
HE1        18.2592788888       15.9542443216        2.2367367198
CZ         18.1780291172       17.5846887760        0.8226745015
OH         19.2184709596       18.2531241749        1.3876233636
HH         19.4056699097       19.0761018718        0.9178825170
CE2        17.5237983417       18.1124561689       -0.3120729744
HE2        17.8477211102       19.0546994908       -0.7325430656
CD2        16.4488480348       17.4116704864       -0.8940962086
HD2        15.9466957532       17.8219982732       -1.7620883870
C          13.0928209645       17.0504623588       -0.0495976091
O          12.3564123515       17.5458086678       -0.9092602799
N          13.5143961207       17.7378575376        1.0173648494
H          14.1928434546       17.3057193167        1.6275937733
CA         12.9417673433       19.0177961246        1.4604115067
HA         12.4276845169       19.4899303766        0.6217686233
CB         11.9029875043       18.7551584202        2.5693943087
HB2        12.4307158066       18.4755992029        3.4829962546
HB3        11.3693435182       19.6837298656        2.7778851223
CG         10.8864366320       17.6687888678        2.2489212863
CD1        11.1026506555       16.3507487745        2.7015993476
HD1        11.9720704405       16.1196975919        3.3046245292
CE1        10.2026092104       15.3258548027        2.3531470387
HE1        10.3719797931       14.3115787354        2.6867399137
CZ          9.0738885518       15.6172771476        1.5593390376
OH          8.2160390218       14.6200045091        1.2223445901
HH          7.4600085845       14.9475787089        0.7123771619
CE2         8.8452169263       16.9397623757        1.1202717144
HE2         7.9791520890       17.1640188702        0.5127469199
CD2         9.7540983112       17.9620451648        1.4624304670
HD2         9.5882443722       18.9723221610        1.1087454707
C          14.0211568326       19.9966216776        1.9554416678
O          15.0656830483       19.5800734644        2.4662900596
N          13.7587460227       21.3039277670        1.8342405940
H          12.8769664751       21.5677061913        1.4153110902
CH3        14.6556063402       22.3781169852        2.2622847713
HH31       14.8388039240       22.3085274423        3.3365126709
HH32       14.2084119767       23.3496194536        2.0433027253
HH33       15.6096161715       22.3026625406        1.7363776874
         110
Energy of minimum      2=    -153.3493447     first found at step       77 after                53932 function calls
HH31       -0.7346459037        4.5048039068        0.9644253655
CH3        -0.3249035953        5.3701181424        0.4454716802
HH32       -0.4242149756        6.2537426744        1.0741216530
HH33       -0.8645060022        5.5255172148       -0.4875605770
C           1.1362684238        5.1337242048        0.1434687065
O           1.6742198199        4.0816238342        0.4847701741
N           1.7761910715        6.1115152040       -0.4948199974
H           1.2533280634        6.9460817302       -0.7205556172
CA          3.1956629862        6.0909079643       -0.8720456702
HA          3.7407576587        5.4508107686       -0.1761967368
CB          3.3356197055        5.4976230762       -2.2856472117
HB2         2.9379675785        4.4815011631       -2.2823007865
HB3         2.7264435682        6.0832318867       -2.9764875534
CG          4.7626071884        5.4526607450       -2.8042731302
CD1         5.2184074878        6.4342490937       -3.7080821117
HD1         4.5439293023        7.2065061200       -4.0579947140
CE1         6.5560277281        6.4217902790       -4.1495246197
HE1         6.9122431383        7.1739369081       -4.8398013509
CZ          7.4426979733        5.4248094222       -3.6897464279
OH          8.7323734246        5.4158925601       -4.1197485087
HH          9.2278645782        4.6824861497       -3.7333191932
CE2         6.9839070014        4.4373365170       -2.7902031416
HE2         7.6613760282        3.6713554868       -2.4382828621
CD2         5.6459811606        4.4543607340       -2.3479003041
HD2         5.2981295265        3.6999001155       -1.6522511825
C           3.8212822939        7.4961859054       -0.8028297699
O           3.1427461497        8.5000234361       -1.0425012090
N           5.1225514948        7.5655341257       -0.5061112328
H           5.6189063226        6.6992613371       -0.3472511897
CA          5.9414699700        8.7816231358       -0.5672921198
HA          5.5414575879        9.4356742176       -1.3440274413
CB          5.8700448043        9.5258657459        0.7778426618
HB2         4.8225675328        9.6856062363        1.0383515521
HB3         6.3073585630        8.8982834663        1.5562693843
CG          6.5631578608       10.8775074327        0.7707394140
CD1         5.9452184582       11.9755718000        0.1401824925
HD1         4.9674638948       11.8597972725       -0.3124321296
CE1         6.5957302461       13.2244092638        0.0934267849
HE1         6.1183872307       14.0652768704       -0.3910341429
CZ          7.8729549782       13.3774378367        0.6762663937
OH          8.5014194015       14.5822556791        0.6342409487
HH          7.9589932706       15.2386890325        0.1819762479
CE2         8.4903953838       12.2779448068        1.3101249269
HE2         9.4694046980       12.3996039802        1.7522620231
CD2         7.8354501835       11.0310110914        1.3585288074
HD2         8.3174050644       10.1889656353        1.8402650930
C           7.3983587377        8.4461648080       -0.9389138068
O           7.8871948301        7.3516345230       -0.6420754488
N           8.1025237704        9.3952498625       -1.5603623398
H           7.6548599552       10.2852470263       -1.7347230049
CA          9.5189047430        9.2900698861       -1.9257965857
HA2        10.0599028524        8.7623823529       -1.1392133326
HA3         9.6197223481        8.7207286253       -2.8500624385
C          10.1707079779       10.6630743717       -2.1241224035
O           9.4810744496       11.6637592484       -2.3429186395
N          11.5020356393       10.7205167123       -2.0365587019
H          12.0045917739        9.8623285847       -1.8597557852
CA         12.2662229736       11.9747990785       -2.0346409766
HA2        13.3258391667       11.7583272558       -2.1713446964
HA3        11.9419174240       12.5952696424       -2.8712355053
C          12.1025468979       12.7720600198       -0.7320995611
O          11.9058391588       12.1939380611        0.3410640198
N          12.1988607380       14.1004148921       -0.8211784950
H          12.3494417040       14.5083322041       -1.7333329210
CA         12.0202677208       15.0372947219        0.2975435447
HA         11.3200578869       14.5995705187        1.0110376994
CB         13.3629368104       15.2495681615        1.0238221427
HB2        13.1781022086       15.8214027367        1.9343743152
HB3        13.7477700298       14.2791454358        1.3412044852
CG         14.4376370969       15.9608049035        0.2160674091
CD1        14.5817349265       17.3605930828        0.3079442761
HD1        13.9283268969       17.9324681553        0.9552671821
CE1        15.5758609229       18.0221160719       -0.4401460745
HE1        15.6830166677       19.0960197283       -0.3695722120
CZ         16.4344658726       17.2820048692       -1.2821651165
OH         17.3961153179       17.9130035121       -2.0070590707
HH         17.3835273999       18.8669297043       -1.8553426241
CE2        16.2954493456       15.8802199288       -1.3682566720
HE2        16.9581695952       15.3179503750       -2.0117566266
CD2        15.3003967483       15.2221450963       -0.6187799531
HD2        15.1996374416       14.1458787650       -0.6851601438
C          11.4155513981       16.3759160889       -0.1679833048
O          11.4005480231       16.6826132965       -1.3649450109
N          10.9295380900       17.1830211515        0.7801952485
H          10.9805518718       16.8740860911        1.7411162282
CA         10.3732066986       18.5232545666        0.5494922965
HA         10.8199677819       18.9420336733       -0.3538171180
CB          8.8550876433       18.4072242388        0.3280041730
HB2         8.6719527538       17.6938815047       -0.4770944717
HB3         8.3955760465       18.0035113292        1.2319052323
CG          8.1722096100       19.7119770577       -0.0420658528
CD1         8.3471500812       20.2534780481       -1.3312772795
HD1         8.9537339780       19.7299185617       -2.0608632696
CE1         7.7335828350       21.4741149030       -1.6763099363
HE1         7.8684982193       21.8879835235       -2.6664279796
CZ          6.9402337995       22.1574188842       -0.7287246643
OH          6.3453612917       23.3358153028       -1.0539726128
HH          6.5453948377       23.5930820246       -1.9633590465
CE2         6.7647436613       21.6137866114        0.5618166078
HE2         6.1568132312       22.1416504711        1.2837311758
CD2         7.3797137310       20.3932425596        0.9038335318
HD2         7.2445687557       19.9828294622        1.8973324847
C          10.7044314080       19.4750674687        1.7155940227
O          10.9137309483       19.0297245204        2.8491067404
N          10.7531285635       20.7854887238        1.4453071145
H          10.5426508673       21.0750082133        0.4996853709
CH3        11.0472910721       21.8306722299        2.4257636750
HH31       10.3014003665       21.8167950520        3.2230113412
HH32       11.0307226699       22.8105268579        1.9449929322
HH33       12.0345967181       21.6685520274        2.8629373678
         110
Energy of minimum      3=    -153.3083418     first found at step       63 after                44439 function calls
HH31       -0.9322349721        2.9647855953       -0.2692010479
CH3        -0.3802863222        3.6170670532       -0.9443690848
HH32       -0.8832331507        4.5804331085       -1.0138311435
HH33       -0.3298799302        3.1614636774       -1.9321710530
C           1.0205305498        3.8218756680       -0.4172358671
O           1.3699512956        3.2821853950        0.6312944724
N           1.8198169518        4.6011727860       -1.1430774037
H           1.4378588896        5.0136343709       -1.9826217695
CA          3.2088312812        4.9398607761       -0.8057547375
HA          3.3342289283        4.8928229027        0.2773372191
CB          4.1510417270        3.9060240892       -1.4470873662
HB2         3.8873972791        2.9134144949       -1.0784222033
HB3         3.9915210511        3.9045729832       -2.5268185419
CG          5.6244663629        4.1428153051       -1.1652396021
CD1         6.4488835954        4.7290756918       -2.1474877063
HD1         6.0374869134        4.9942639964       -3.1141036226
CE1         7.8086931095        4.9776052433       -1.8747784643
HE1         8.4397346156        5.4266879488       -2.6295304956
CZ          8.3482768971        4.6382976389       -0.6146974700
OH          9.6613321832        4.8676192321       -0.3468434284
HH         10.1131196752        5.2612424130       -1.1041348583
CE2         7.5223931208        4.0498760281        0.3671786492
HE2         7.9417800189        3.7906927860        1.3295881300
CD2         6.1627052593        3.8038895170        0.0918733194
HD2         5.5316057668        3.3535609287        0.8488028512
C           3.5678316564        6.3674924307       -1.2571177489
O           3.0432669318        6.8601914379       -2.2609731862
N           4.4773920420        7.0238662259       -0.5304434496
H           4.8871301721        6.5467980112        0.2610829401
CA          5.0399557473        8.3376926807       -0.8642985425
HA          5.0665516856        8.4448465943       -1.9500618178
CB          4.1407226360        9.4461884510       -0.2879020425
HB2         3.1276917485        9.3155923582       -0.6715644192
HB3         4.0955863992        9.3385458799        0.7972163309
CG          4.5998219640       10.8520699271       -0.6336069086
CD1         4.4262918797       11.3412988571       -1.9433370975
HD1         3.9335788668       10.7291335847       -2.6894900151
CE1         4.8980289512       12.6229258377       -2.2885400777
HE1         4.7661337259       12.9952439946       -3.2953439647
CZ          5.5470975419       13.4206531211       -1.3209310937
OH          6.0072384620       14.6557765054       -1.6542619733
HH          5.8265425742       14.8457935234       -2.5843749197
CE2         5.7154650853       12.9329004183       -0.0073021456
HE2         6.2120521205       13.5478600062        0.7302402326
CD2         5.2421507805       11.6505235584        0.3349365576
HD2         5.3828246088       11.2764854883        1.3419097344
C           6.4829494940        8.4751461164       -0.3430977459
O           6.8490257840        7.8641973859        0.6656192020
N           7.2936735057        9.3032174117       -1.0072053203
H           6.9236319471        9.7933522067       -1.8107159502
CA          8.6598903217        9.6439085926       -0.5995497476
HA2         8.6756985112        9.8454750473        0.4723946505
HA3         9.3246071754        8.8028120894       -0.7971723065
C           9.2023679190       10.8753923204       -1.3339360022
O           8.7434962232       11.2126907793       -2.4293215500
N          10.1752102802       11.5564286572       -0.7264075890
H          10.5063487674       11.2218122069        0.1689670519
CA         10.7882420284       12.7866795496       -1.2406890970
HA2        11.3475825981       12.5653403799       -2.1500942069
HA3        10.0053641282       13.5044592957       -1.4889825717
C          11.7412503713       13.4394684608       -0.2323574389
O          12.0678647360       12.8465658318        0.8009611727
N          12.1796557728       14.6665342688       -0.5230311698
H          11.8619082030       15.0945817706       -1.3817467385
CA         13.0477035430       15.4754092246        0.3432173186
HA         12.9440264977       15.1288752681        1.3729576734
CB         14.5143420828       15.2843600181       -0.0763461879
HB2        14.7641293236       14.2240808310       -0.0114831351
HB3        14.6271425988       15.5830150294       -1.1200160402
CG         15.5039218936       16.0625346086        0.7725602650
CD1        15.8646190173       15.5835569676        2.0476557929
HD1        15.4547648333       14.6486053591        2.4110549202
CE1        16.7563289596       16.3189168335        2.8537695652
HE1        17.0325182261       15.9502122706        3.8322384970
CZ         17.2882841138       17.5402544180        2.3847107273
OH         18.1506201817       18.2542840958        3.1560335214
HH         18.3126609264       17.8166751191        4.0017048694
CE2        16.9280736145       18.0179075976        1.1064722358
HE2        17.3391720309       18.9531367350        0.7522024329
CD2        16.0375565783       17.2797047181        0.3024170808
HD2        15.7592633446       17.6538941956       -0.6754919085
C          12.6488557406       16.9610262253        0.3116493102
O          12.2772952819       17.4873258134       -0.7417894356
N          12.7494799795       17.6336284105        1.4626966885
H          13.1198911485       17.1444561378        2.2652651602
CA         12.4136987924       19.0496254016        1.6607363946
HA         12.4587613486       19.5704729121        0.7028393958
CB         10.9831147332       19.1767197944        2.2159082568
HB2        10.9161351895       18.6244994764        3.1550005285
HB3        10.7928483141       20.2257618172        2.4486412586
CG          9.8870858584       18.6977656881        1.2781653050
CD1         9.3721668416       17.3893711802        1.3911159411
HD1         9.7550627556       16.7211566731        2.1526735113
CE1         8.3647156604       16.9453759489        0.5106545675
HE1         7.9733408128       15.9407771678        0.5937875014
CZ          7.8636200429       17.8161137598       -0.4817982909
OH          6.8928031624       17.4012440622       -1.3373369302
HH          6.6462114469       16.4760983392       -1.1828234977
CE2         8.3721388952       19.1281021852       -0.5876737703
HE2         7.9831291472       19.7900135919       -1.3491488789
CD2         9.3832435258       19.5663348021        0.2895036479
HD2         9.7746290700       20.5724824970        0.2008308120
C          13.4163508189       19.7269523669        2.6119200262
O          13.9303547248       19.0932208185        3.5393462300
N          13.6746068569       21.0240886629        2.4042124278
H          13.2066298528       21.4777819543        1.6311523995
CH3        14.5925262038       21.8300816925        3.2098425361
HH31       14.2499327641       21.8660481978        4.2460032642
HH32       14.6399396369       22.8481093904        2.8185977587
HH33       15.5941057706       21.3956305999        3.1845259436
         110
Energy of minimum      4=    -153.2617709     first found at step       41 after                28927 function calls
HH31       -0.6651780303        3.0634494717       -0.0457656662
CH3        -0.2307863604        3.9552556979       -0.4951605642
HH32       -0.7094149072        4.8421777005       -0.0826808725
HH33       -0.3798809289        3.9302485535       -1.5735916740
C           1.2494177702        4.0022052656       -0.1970066047
O           1.7733406639        3.1094912674        0.4673350731
N           1.9208704475        5.0424635409       -0.6869231273
H           1.4004825834        5.7342624258       -1.2079437221
CA          3.3578031846        5.2865341980       -0.5041264269
HA          3.6823968005        4.8226072581        0.4288489127
CB          4.1331867049        4.6354372598       -1.6632609495
HB2         3.9292202497        3.5635024229       -1.6649080546
HB3         3.7614436683        5.0385962385       -2.6069498715
CG          5.6376100685        4.8352896455       -1.5998075241
CD1         6.2601906347        5.7950783888       -2.4241288327
HD1         5.6696140956        6.3767681244       -3.1218259686
CE1         7.6506409095        6.0065095387       -2.3400512222
HE1         8.1263108894        6.7425123533       -2.9737390008
CZ          8.4237591400        5.2554466887       -1.4279004243
OH          9.7670574442        5.4483787915       -1.3464527189
HH         10.0669533708        6.1185525016       -1.9735524369
CE2         7.7996732248        4.2942369142       -0.6038851295
HE2         8.3973256986        3.7211323060        0.0915781300
CD2         6.4088964633        4.0855726198       -0.6898712407
HD2         5.9334701023        3.3478595695       -0.0544302286
C           3.6693743636        6.7915171218       -0.4109771015
O           2.9807079694        7.6161232463       -1.0203301608
N           4.7226859185        7.1472960249        0.3305633301
H           5.2526612203        6.4149459469        0.7828180111
CA          5.2644806190        8.5066867648        0.4342391163
HA          5.0804482285        9.0337306553       -0.5035596430
CB          4.5446615433        9.2669958718        1.5630837115
HB2         3.5012272267        9.4141761261        1.2806634509
HB3         4.5553286483        8.6493888506        2.4628759269
CG          5.1529705492       10.6208045231        1.8907639359
CD1         5.0891993799       11.6733115746        0.9545091164
HD1         4.5643915972       11.5342569750        0.0168954179
CE1         5.7209125949       12.9035847332        1.2284557090
HE1         5.6824490082       13.7075041234        0.5061347411
CZ          6.4063055082       13.0876717840        2.4493039565
OH          7.0295260149       14.2631183603        2.7232308750
HH          7.0021830593       14.8756088429        1.9712428533
CE2         6.4529680560       12.0403925098        3.3929929455
HE2         6.9801628525       12.1873870352        4.3255982343
CD2         5.8326184177       10.8083202338        3.1112610376
HD2         5.8902958032       10.0014843475        3.8319991526
C           6.7871964666        8.4832934289        0.6657750120
O           7.3062241155        7.6228079802        1.3829680450
N           7.4956272821        9.4514776245        0.0800903745
H           7.0013626270       10.1184680388       -0.4966515906
CA          8.9325318737        9.6816290228        0.2532228521
HA2         9.1432553838        9.8548348187        1.3092340233
HA3         9.4922777204        8.8033721996       -0.0692836076
C           9.4177819062       10.8933839105       -0.5518784044
O           8.7785765545       11.2940151617       -1.5299925665
N          10.5383763256       11.4924482434       -0.1441223458
H          11.0155658968       11.1260972961        0.6689484396
CA         11.1181775171       12.6775709641       -0.7879987028
HA2        11.5113174778       12.4020562814       -1.7670449193
HA3        10.3375597864       13.4248388869       -0.9371271657
C          12.2486686723       13.3251488624        0.0189633624
O          12.6894874860       12.7891196151        1.0404008160
N          12.7106303468       14.4892284517       -0.4416117698
H          12.2867910446       14.8668245668       -1.2780252678
CA         13.7348264999       15.3184670204        0.2062684200
HA         13.7527247727       15.0925587489        1.2738262253
CB         15.1137866036       14.9785202007       -0.3818705379
HB2        15.2954864125       13.9098712917       -0.2561838952
HB3        15.1024096804       15.1830051696       -1.4538785957
CG         16.2651049592       15.7330820378        0.2578968712
CD1        16.7335571437       15.3500573819        1.5302774178
HD1        16.2849408434       14.5072691368        2.0426831030
CE1        17.7872409346       16.0607803050        2.1380420899
HE1        18.1523214049       15.7707964564        3.1137482195
CZ         18.3750825128       17.1592285836        1.4744917334
OH         19.3956197012       17.8384092764        2.0625653670
HH         19.7063137338       18.5619897194        1.5033126136
CE2        17.9060497500       17.5420070075        0.1986517531
HE2        18.3556901579       18.3824308089       -0.3122130201
CD2        16.8523282012       16.8288929849       -0.4067298788
HD2        16.4927502305       17.1278990095       -1.3840615679
C          13.4061577300       16.8141638593        0.0491786773
O          12.8191593892       17.2201389795       -0.9592548850
N          13.7825526219       17.6298981431        1.0396666999
H          14.3305474904       17.2428798922        1.7947015577
CA         13.4307919727       19.0536389615        1.1386365263
HA         13.1571241561       19.4268958952        0.1504912492
CB         12.2153342371       19.2242972702        2.0691136448
HB2        12.5097415703       18.9500900153        3.0837370867
HB3        11.9385411650       20.2795557946        2.0908565654
CG         10.9870205312       18.4147127774        1.6830492350
CD1        10.7445875345       17.1665879986        2.2922459477
HD1        11.4292523025       16.7863297777        3.0403307220
CE1         9.6157559785       16.4075317623        1.9273236276
HE1         9.4329052319       15.4487343826        2.3909209255
CZ          8.7167558231       16.8980290618        0.9558150175
OH          7.6199398104       16.1689975269        0.6124080519
HH          7.1041848133       16.6200417772       -0.0688859805
CE2         8.9579371040       18.1496303075        0.3471902267
HE2         8.2720623654       18.5285279867       -0.3981511064
CD2        10.0921090190       18.9040311806        0.7105104808
HD2        10.2764981020       19.8616384706        0.2389417143
C          14.6129390684       19.8980297291        1.6464122825
O          15.4339857862       19.4224909824        2.4370135991
N          14.6847559327       21.1649067381        1.2192297084
H          13.9687893453       21.4856109789        0.5811688191
CH3        15.7257438942       22.1178226905        1.6061361419
HH31       15.7112883832       22.2712251406        2.6871611354
HH32       15.5587802890       23.0767709140        1.1118801447
HH33       16.7080565905       21.7385823369        1.3169975551
         110
Energy of minimum      5=    -153.2478295     first found at step       60 after                42341 function calls
HH31       -0.6122661520        3.1109281916        1.0990675825
CH3        -0.2472341114        3.8631481214        0.4012946492
HH32       -0.7303804097        4.8171366884        0.6070374160
HH33       -0.4718715467        3.5546073432       -0.6186114945
C           1.2474087133        4.0161015257        0.5586222863
O           1.8528454189        3.3384162066        1.3874557914
N           1.8398462013        4.9058026550       -0.2353919273
H           1.2562235047        5.4270866736       -0.8745310232
CA          3.2752109286        5.2181909628       -0.2366826676
HA          3.6842506542        5.0189250631        0.7552874703
CB          3.9903087681        4.3042761235       -1.2472587929