         110
Energy of minimum      1=    -153.3116399     first found at step       98 after                68732 function calls
HH31       -1.6469920394        1.2785166099        4.8720857286
CH3        -1.1060137085        1.5705378597        3.9731766900
HH32       -1.7943525438        2.0311542258        3.2661552503
HH33       -0.6523593108        0.6912623111        3.5182675773
C          -0.0234598239        2.5606686063        4.3335014404
O           0.1270190714        2.9116481916        5.5026776978
N           0.7278233438        3.0099969390        3.3301776578
H           0.5186309055        2.6751563568        2.4001428990
CA          1.8216849182        3.9817245793        3.4594078567
HA          1.6293910966        4.6238597586        4.3206632982
CB          3.1431381833        3.2292886440        3.7027883235
HB2         3.0605095906        2.6632384724        4.6319576582
HB3         3.2935329545        2.5100082058        2.8957413504
CG          4.3650894425        4.1278424264        3.7932459573
CD1         4.6175776166        4.8568362807        4.9722541392
HD1         3.9609779856        4.7483633590        5.8273856377
CE1         5.7193568266        5.7330015277        5.0403013895
HE1         5.9108987712        6.2934621364        5.9451384221
CZ          6.5707030400        5.8851161075        3.9237019178
OH          7.6328388178        6.7317475275        3.9800465273
HH          7.6954731523        7.1619832914        4.8423111811
CE2         6.3197899467        5.1511551093        2.7449159230
HE2         6.9760236745        5.2699319347        1.8939367090
CD2         5.2199597250        4.2733180617        2.6812432642
HD2         5.0267093573        3.7189968554        1.7706871984
C           1.9291379418        4.8855896798        2.2175164640
O           1.6261433969        4.4591055426        1.0987099698
N           2.3990696212        6.1215482310        2.4105738530
H           2.6386140032        6.3934687580        3.3542130111
CA          2.7866444315        7.0549558315        1.3477311169
HA          3.1071264784        6.4836937922        0.4747489889
CB          1.5794229106        7.9167113324        0.9444556391
HB2         1.2365240184        8.4789429677        1.8147558092
HB3         0.7635660140        7.2602982498        0.6377233486
CG          1.8675253561        8.8810911625       -0.1921203774
CD1         2.1058896992       10.2441526201        0.0763715972
HD1         2.0667272882       10.6129529493        1.0943579031
CE1         2.4031418642       11.1300043040       -0.9779567116
HE1         2.5887789126       12.1764040873       -0.7780784182
CZ          2.4628351567       10.6548479854       -2.3055637553
OH          2.7514628762       11.5131283133       -3.3195923804
HH          2.7601054522       11.0608360992       -4.1731032075
CE2         2.2223971321        9.2894611728       -2.5741789666
HE2         2.2672732058        8.9230834610       -3.5907843318
CD2         1.9260034107        8.4058566623       -1.5173553938
HD2         1.7440157127        7.3580646937       -1.7253342112
C           3.9686826162        7.9307651481        1.8011241120
O           4.0351958831        8.3397963480        2.9644992027
N           4.8931800158        8.2326627737        0.8861592001
H           4.7729869875        7.8854174488       -0.0557699475
CA          6.0855589912        9.0463872537        1.1446614223
HA2         5.7803306306       10.0505965452        1.4405516231
HA3         6.6531885523        8.6082226853        1.9662690154
C           7.0108015558        9.1611981067       -0.0724297984
O           6.7466857861        8.5790073447       -1.1293572694
N           8.1027860100        9.9141147071        0.0725138423
H           8.2615450839       10.3633332094        0.9648970805
CA          9.1048095774       10.1434434135       -0.9752824832
HA2         9.5270018200        9.1879138010       -1.2883936285
HA3         8.6256933386       10.6016357089       -1.8411966024
C          10.2539566677       11.0526620439       -0.5231360480
O          10.2783047836       11.5220904789        0.6190932172
N          11.2094027784       11.3022930595       -1.4215782284
H          11.1127681700       10.8955370706       -2.3420321364
CA         12.3846631215       12.1546212866       -1.1944877965
HA         12.1401680345       12.9074233491       -0.4429768169
CB         13.5381492735       11.2900855589       -0.6562541219
HB2        13.2116826109       10.8003297053        0.2626000990
HB3        13.7598883925       10.5052309828       -1.3815812742
CG         14.8112133822       12.0615949589       -0.3562382980
CD1        14.8957151929       12.8517927989        0.8070897348
HD1        14.0617805146       12.8916615573        1.4977610270
CE1        16.0648074950       13.5910009060        1.0749707957
HE1        16.1365001096       14.1979802942        1.9670230235
CZ         17.1534471662       13.5434930786        0.1777527389
OH         18.2822510951       14.2528864707        0.4441834099
HH         18.9501033587       14.1250865041       -0.2415259533
CE2        17.0685730761       12.7511773484       -0.9880681240
HE2        17.9018902131       12.7116908459       -1.6762045396
CD2        15.8985093409       12.0120693628       -1.2525105759
HD2        15.8357432681       11.4080956706       -2.1498216454
C          12.8015602622       12.8944618062       -2.4790972309
O          12.6076616567       12.3853920004       -3.5876163075
N          13.3891734174       14.0857980809       -2.3321779965
H          13.5433417443       14.4271792514       -1.3932433690
CA         13.9470190248       14.8951317648       -3.4225112834
HA         14.3065875569       14.2292026014       -4.2087951577
CB         12.8430813527       15.7903552003       -4.0108351389
HB2        12.0033520158       15.1624631582       -4.3128714102
HB3        12.4808856434       16.4647155315       -3.2328929677
CG         13.2778025344       16.6038572192       -5.2168219508
CD1        13.5444326729       17.9817973923       -5.0864526925
HD1        13.4297312752       18.4696508371       -4.1259278258
CE1        13.9661672359       18.7282766746       -6.2044042054
HE1        14.1734706445       19.7854147149       -6.1102299169
CZ         14.1227359770       18.0983696092       -7.4576464913
OH         14.5305701901       18.8226390861       -8.5334803134
HH         14.5959146534       18.2727099837       -9.3250002118
CE2        13.8548297894       16.7179545837       -7.5879104379
HE2        13.9730272515       16.2331709387       -8.5475033537
CD2        13.4330553148       15.9741789983       -6.4679001696
HD2        13.2266340467       14.9152976598       -6.5703236865
C          15.1409801846       15.7360720313       -2.9322496347
O          15.1674282183       16.1715843457       -1.7765122755
N          16.1214263216       15.9804470982       -3.8107795988
H          16.0134290034       15.6130218947       -4.7463187485
CH3        17.3214220942       16.7666718967       -3.5245876999
HH31       17.8579672054       16.3376128178       -2.6759844571
HH32       17.9818131732       16.7721314877       -4.3936917268
HH33       17.0458754397       17.7955173969       -3.2846016107
         110
Energy of minimum      2=    -153.0984208     first found at step       42 after                29563 function calls
HH31       -0.3766787145        1.6687017106        2.5479968064
CH3         0.0938239337        2.2910937929        1.7882426732
HH32       -0.5924236539        3.0811586653        1.4870487564
HH33        0.3480152653        1.6811270033        0.9226815562
C           1.3524184352        2.9099374093        2.3495614719
O           1.6921539080        2.6738752111        3.5078538762
N           2.0414644557        3.7011505650        1.5296842397
H           1.6746065602        3.8475227672        0.5997185199
CA          3.2809855578        4.4087058999        1.8770523732
HA          3.2943384451        4.5982896984        2.9517217890
CB          4.4867956963        3.5182263075        1.5281567050
HB2         4.4137584599        2.5888790207        2.0952755934
HB3         4.4383409859        3.2576182104        0.4693755104
CG          5.8368576325        4.1507587401        1.8189402457
CD1         6.6053211332        4.6942563625        0.7689819828
HD1         6.2446007944        4.6419653981       -0.2513486001
CE1         7.8415080166        5.3126467467        1.0420339671
HE1         8.4298062744        5.7278845187        0.2351856686
CZ          8.3129675737        5.3889057437        2.3708501072
OH          9.5085421274        5.9770209757        2.6411842756
HH          9.9394528110        6.2894107241        1.8355821083
CE2         7.5433877432        4.8436830572        3.4210487899
HE2         7.9105021827        4.9038673033        4.4363736463
CD2         6.3073124944        4.2263862569        3.1447963793
HD2         5.7188643478        3.8105158164        3.9539875797
C           3.3766125701        5.7683662378        1.1610544671
O           2.8784576653        5.9271327689        0.0420473457
N           4.0395085797        6.7408342728        1.7941514168
H           4.4408677523        6.5303362416        2.6977490523
CA          4.3658303908        8.0533107231        1.2251131560
HA          4.4921828095        7.9498611832        0.1460084537
CB          3.2082474297        9.0316031613        1.4868672840
HB2         3.0602459117        9.1268001738        2.5639836553
HB3         2.2913149756        8.6144751681        1.0676098088
CG          3.4187096044       10.4106651266        0.8875954617
CD1         3.8120772738       11.4884099820        1.7065857894
HD1         3.9469059270       11.3415674313        2.7715079151
CE1         4.0391882400       12.7586215719        1.1412327121
HE1         4.3432518390       13.5887342596        1.7639712790
CZ          3.8728605964       12.9552693378       -0.2463884852
OH          4.0945263688       14.1824816710       -0.7876812715
HH          3.9449529363       14.1795197905       -1.7419959121
CE2         3.4762953878       11.8758440791       -1.0660361462
HE2         3.3475171181       12.0243417963       -2.1295610639
CD2         3.2507416605       10.6063734229       -0.4976787346
HD2         2.9488405603        9.7788319952       -1.1287716534
C           5.6859589196        8.5919925316        1.8067036714
O           6.0020679972        8.3501389208        2.9756687180
N           6.4478523708        9.3395640611        1.0041970440
H           6.1250796738        9.5193623155        0.0628710527
CA          7.7141800123        9.9647590130        1.3996920039
HA2         7.5358960058       10.6403785382        2.2370191768
HA3         8.4140906545        9.1956110738        1.7277374225
C           8.3694318663       10.7628675959        0.2660969681
O           7.8970362504       10.7510356829       -0.8750592927
N           9.4636751686       11.4602766467        0.5769184798
H           9.7998183150       11.4272176631        1.5304806191
CA         10.2252824103       12.2850736318       -0.3687781044
HA2        10.5834067416       11.6604685275       -1.1878781186
HA3         9.5728716422       13.0517165649       -0.7882423205
C          11.4336709837       12.9786238162        0.2718812709
O          11.6920010967       12.8224673826        1.4695996690
N          12.1765051038       13.7476102392       -0.5276334518
H          11.8933782913       13.8399671522       -1.4937247917
CA         13.3635054622       14.5064381875       -0.1101005505
HA         13.2729908155       14.7580791852        0.9480895055
CB         14.6146432148       13.6287666759       -0.2933990495
HB2        14.5022945865       12.7251448567        0.3078785435
HB3        14.6789283740       13.3186557913       -1.3378977817
CG         15.9151450380       14.3062557313        0.1018503391
CD1        16.7698145797       14.8316040596       -0.8887931489
HD1        16.5147238165       14.7304755746       -1.9368446463
CE1        17.9534677914       15.4996959508       -0.5187084684
HE1        18.6114515079       15.9073745137       -1.2736391367
CZ         18.2874476453       15.6431316285        0.8449239375
OH         19.4325631072       16.2855495765        1.1973756015
HH         19.5420678916       16.3106882074        2.1566014099
CE2        17.4339330643       15.1116316115        1.8367540192
HE2        17.6892582939       15.2185098464        2.8822120373
CD2        16.2492342702       14.4460720399        1.4634963634
HD2        15.5933317248       14.0436177088        2.2264010274
C          13.4964852517       15.8255385973       -0.8937935712
O          13.0777176383       15.9132844972       -2.0524163626
N          14.1004622275       16.8427081251       -0.2719889270
H          14.4413690287       16.6889963446        0.6671747128
CA         14.4496713989       18.1270382774       -0.8903647079
HA         14.6416074251       17.9672879550       -1.9527395019
CB         13.2682570583       19.1017430996       -0.7519572852
HB2        12.3774609673       18.6391197732       -1.1798563660
HB3        13.0694552231       19.2707818100        0.3077738072
CG         13.4816310743       20.4376252054       -1.4410767392
CD1        13.8034676564       21.5837490183       -0.6861100990
HD1        13.8891711770       21.5175405226        0.3919392751
CE1        14.0198652521       22.8181504410       -1.3303277694
HE1        14.2678884734       23.6963205942       -0.7498292742
CZ         13.9143450791       22.9085625454       -2.7356010183
OH         14.1224055456       24.0958725173       -3.3643281962
HH         14.3341740196       24.7966134677       -2.7340015386
CE2        13.5914321852       21.7604346226       -3.4903474802
HE2        13.5111280027       21.8356828285       -4.5661719990
CD2        13.3756490248       20.5277457443       -2.8432336475
HD2        13.1269667890       19.6485853999       -3.4258205152
C          15.7289532373       18.7094517914       -0.2602895339
O          15.9656532022       18.5438648943        0.9408885442
N          16.5467752608       19.4036701666       -1.0614814348
H          16.2696022126       19.5198033664       -2.0265960515
CH3        17.8035842471       20.0201674609       -0.6368315482
HH31       18.2919948755       20.4993506070       -1.4872802050
HH32       17.6108232869       20.7733326976        0.1297087346
HH33       18.4731359134       19.2613238493       -0.2264754925
         110
Energy of minimum      3=    -152.9751113     first found at step        1 after                 1383 function calls
HH31        2.3842677488        0.9633761516        0.9799950208
CH3         2.4534444665        1.9019500738        0.4320310109
HH32        1.6467924125        2.5652503385        0.7405779789
HH33        2.3752316985        1.7074286578       -0.6365722430
C           3.7811173166        2.5611190003        0.7233856172
O           4.5828078836        2.0230198342        1.4853096163
N           4.0115713143        3.7246563036        0.1183457699
H           3.2856370472        4.0956491486       -0.4785038540
CA          5.2274701853        4.5343361847        0.2723609089
HA          5.6662210057        4.3363202481        1.2518108039
CB          6.2472020969        4.1261651772       -0.8056939685
HB2         6.4832749451        3.0678044775       -0.6840921757
HB3         5.7884220605        4.2460403826       -1.7887671111
CG          7.5460262752        4.9129239904       -0.7684854981
CD1         7.7729515996        5.9497745813       -1.6968087004
HD1         7.0304778190        6.1731469543       -2.4536212649
CE1         8.9620696662        6.7034289393       -1.6408974497
HE1         9.1346050058        7.4974908143       -2.3544929835
CZ          9.9299372565        6.4203217700       -0.6525021523
OH         11.0833038701        7.1379922067       -0.5972479484
HH         11.1210242747        7.8016889439       -1.2974979788
CE2         9.7022252723        5.3815609823        0.2757009969
HE2        10.4478656763        5.1685805805        1.0293187346
CD2         8.5118133736        4.6300395211        0.2175029596
HD2         8.3401517983        3.8345536432        0.9328660662
C           4.9184672028        6.0406162758        0.1941812207
O           3.9946940038        6.4580827636       -0.5114443292
N           5.7076054353        6.8579838131        0.8978206789
H           6.4589256524        6.4459055692        1.4341014482
CA          5.6720714858        8.3238460100        0.8442312291
HA          5.3519372932        8.6340706820       -0.1519657386
CB          4.6538640764        8.8532174595        1.8682386407
HB2         3.6798431152        8.4071803211        1.6611835989
HB3         4.9541290865        8.5311685954        2.8668737470
CG          4.4956126354       10.3632031348        1.8566779397
CD1         5.1081549138       11.1491253921        2.8537415397
HD1         5.6786650276       10.6770154358        3.6445835500
CE1         4.9871402661       12.5522919566        2.8202738582
HE1         5.4566097447       13.1606887928        3.5810607865
CZ          4.2518584969       13.1744572219        1.7887222705
OH          4.1389972214       14.5289338487        1.7597595140
HH          3.6117260157       14.8230882491        1.0057337911
CE2         3.6362652495       12.3864949191        0.7915234284
HE2         3.0717043438       12.8610270203        0.0004414760
CD2         3.7598733104       10.9833191429        0.8272881914
HD2         3.2887506439       10.3806624496        0.0597625799
C           7.0700051224        8.9174575885        1.0983421414
O           7.8551160562        8.3649026291        1.8749889057
N           7.3769734263       10.0522561010        0.4648088845
H           6.6838691830       10.4677890016       -0.1430916263
CA          8.6431300338       10.7766771379        0.6162390110
HA2         8.7739139751       11.0581064332        1.6617328408
HA3         9.4716654798       10.1263372135        0.3339913365
C           8.7134417904       12.0477780848       -0.2385874640
O           7.8168083227       12.3238823449       -1.0419246492
N           9.7829186871       12.8274145497       -0.0690532806
H          10.4821417682       12.5440807379        0.6048729542
CA         10.0249486613       14.0821792102       -0.7913140578
HA2        10.0615169982       13.8825033799       -1.8628089443
HA3         9.2021036952       14.7729056134       -0.6038168348
C          11.3337133655       14.7702639912       -0.3847109915
O          12.0717086583       14.2721133063        0.4713535356
N          11.6227331102       15.9193088384       -0.9999745732
H          10.9620564967       16.2731846018       -1.6784305315
CA         12.8155537773       16.7394355652       -0.7473081203
HA         13.1495595802       16.5775248768        0.2790855586
CB         13.9418135235       16.2979115590       -1.6982198411
HB2        14.1410076079       15.2369195150       -1.5389993327
HB3        13.6001964038       16.4132811641       -2.7283908091
CG         15.2447388220       17.0572821676       -1.5202527205
CD1        15.6014172183       18.0762311802       -2.4271670519
HD1        14.9550787292       18.3082438117       -3.2652058904
CE1        16.7964091419       18.8001410810       -2.2449387282
HE1        17.0688622785       19.5810037455       -2.9417403572
CZ         17.6398488611       18.5046163935       -1.1516043774
OH         18.7987131883       19.1929616898       -0.9737373574
HH         18.9272036634       19.8536515499       -1.6662239474
CE2        17.2823635450       17.4832612415       -0.2452751624
HE2        17.9332860181       17.2602272574        0.5889174787
CD2        16.0861641774       16.7620581869       -0.4295044121
HD2        15.8147133953       15.9794366734        0.2689812639
C          12.5125369415       18.2405587686       -0.9091547481
O          11.6518499856       18.6246173209       -1.7074504231
N          13.2293634778       19.0899108253       -0.1669166988
H          13.9383613563       18.7063654703        0.4431005330
CA         13.1610395999       20.5538942822       -0.2513397279
HA         12.9119792332       20.8377001395       -1.2752617883
CB         12.0496987873       21.0681764267        0.6796155608
HB2        11.1146822878       20.5678094454        0.4227226019
HB3        12.2928143515       20.7940376738        1.7076646657
CG         11.8164601040       22.5664338498        0.6022081065
CD1        12.2914177999       23.4137966086        1.6237687745
HD1        12.8159692478       22.9969122143        2.4752141206
CE1        12.0907202872       24.8059767180        1.5392955865
HE1        12.4568228338       25.4548891035        2.3232322514
CZ         11.4121869160       25.3548497295        0.4291544808
OH         11.2153801277       26.6971059657        0.3402861059
HH         11.5881963688       27.1596267691        1.1020457027
CE2        10.9364415702       24.5053250905       -0.5926462675
HE2        10.4166521146       24.9310532386       -1.4400461529
CD2        11.1386690625       23.1138216616       -0.5052088736
HD2        10.7710021887       22.4645782216       -1.2910138315
C          14.5184356492       21.1922391193        0.0995044242
O          15.2613910111       20.6647802935        0.9337126120
N          14.8379798457       22.3348482523       -0.5210975004
H          14.1645998887       22.7187594922       -1.1700088525
CH3        16.0755492009       23.0842029251       -0.3045132040
HH31       16.9398212211       22.4486018479       -0.5073532390
HH32       16.1103309674       23.9499475999       -0.9684130220
HH33       16.1267671426       23.4305543335        0.7296314015
         110
Energy of minimum      4=    -152.9588522     first found at step        0 after                  645 function calls
HH31        2.5287730055        0.8403977231        0.6605625542
CH3         2.4702788792        1.8733828155        0.3207228679
HH32        1.8361376332        2.4448853304        0.9968190569
HH33        2.0508641698        1.9040425585       -0.6837771250
C           3.8541172506        2.4789907718        0.3023764048
O           4.8258660498        1.8072981610        0.6448989432
N           3.9420947274        3.7464737512       -0.0960544196
H           3.0854531882        4.2216342199       -0.3435098294
CA          5.1845445143        4.5260049699       -0.1757488589
HA          5.8978136215        4.1358238746        0.5522899891
CB          5.7922435580        4.3674784390       -1.5808390920
HB2         6.0016448017        3.3111132454       -1.7565801559
HB3         5.0543198723        4.6802597341       -2.3217301363
CG          7.0743244697        5.1519759457       -1.8003969053
CD1         7.0491991130        6.3619408979       -2.5240678253
HD1         6.1186263942        6.7237746948       -2.9448294330
CE1         8.2314008768        7.1084446481       -2.6979802677
HE1         8.2101141759        8.0355882667       -3.2542822705
CZ          9.4454242031        6.6443515065       -2.1460844655
OH         10.5917342952        7.3551861546       -2.3164963138
HH         10.4405271498        8.1493458729       -2.8444108362
CE2         9.4696720722        5.4325664906       -1.4226001948
HE2        10.4027452514        5.0816688703       -1.0036446492
CD2         8.2856396825        4.6885541668       -1.2500313527
HD2         8.3082277774        3.7596654074       -0.6926590387
C           4.9439851272        6.0104405587        0.1544594576
O           3.8682462328        6.5507206308       -0.1219725088
N           5.9547160597        6.6760682380        0.7212818678
H           6.8139282804        6.1732964232        0.8969326790
CA          5.9799307193        8.1204480772        0.9780973646
HA          5.3799935801        8.6256157365        0.2191411278
CB          5.3631709637        8.4103032691        2.3568440577
HB2         5.9452561166        7.8938846395        3.1221129239
HB3         4.3522404826        8.0007000469        2.3848993445
CG          5.2855368830        9.8872650974        2.7000058697
CD1         6.2211293275       10.4610358706        3.5847911555
HD1         6.9886139047        9.8450634959        4.0381103980
CE1         6.1666277634       11.8382820131        3.8773369639
HE1         6.8860675317       12.2773773156        4.5550240777
CZ          5.1724258403       12.6465618403        3.2837888296
OH          5.1138764223       13.9762415842        3.5608026191
HH          5.8084797752       14.2390965009        4.1784612428
CE2         4.2350879680       12.0705126145        2.3996896338
HE2         3.4756499901       12.6942980211        1.9485030059
CD2         4.2927810667       10.6933115161        2.1085356457
HD2         3.5727688202       10.2549514801        1.4277091250
C           7.4159028894        8.6691563490        0.8892771229
O           8.3744458147        7.9811993392        1.2537213278
N           7.5682070592        9.9126523286        0.4268366609
H           6.7426704341       10.4335042295        0.1626291004
CA          8.8546838525       10.6065951488        0.3068746425
HA2         9.3169824284       10.6804391165        1.2918458478
HA3         9.5204259580       10.0319236039       -0.3378360551
C           8.7228945565       12.0203790439       -0.2720866489
O           7.6355353401       12.4418030932       -0.6789839085
N           9.8333300728       12.7590924294       -0.3121201302
H          10.6924465713       12.3545121911        0.0365958825
CA          9.9053953603       14.1318364964       -0.8269769187
HA2         9.5896172382       14.1446106339       -1.8707374183
HA3         9.2248821018       14.7679402845       -0.2598796155
C          11.3125125371       14.7355638116       -0.7421297926
O          12.2535424657       14.0853786662       -0.2759122173
N          11.4572656939       15.9834707100       -1.1939720697
H          10.6373554559       16.4581958195       -1.5466905600
CA         12.7134997469       16.7457966754       -1.1906720362
HA         13.3449536581       16.3903286109       -0.3744817956
CB         13.4544343916       16.5026255702       -2.5171437997
HB2        13.6329329249       15.4319760836       -2.6293111245
HB3        12.8119195485       16.8131123988       -3.3429994571
CG         14.7878708239       17.2203845890       -2.6298404968
CD1        14.8971202977       18.3973624863       -3.3984484001
HD1        14.0333964208       18.7834587216       -3.9264669570
CE1        16.1276648068       19.0789164441       -3.4790874428
HE1        16.2099823739       19.9812241981       -4.0694894209
CZ         17.2551117798       18.5822340088       -2.7889606948
OH         18.4480381205       19.2295380010       -2.8686252843
HH         18.3885368504       20.0123151430       -3.4310113794
CE2        17.1447761569       17.4030042198       -2.0210817235
HE2        18.0121397976       17.0264839155       -1.4964539787
CD2        15.9126102996       16.7244855179       -1.9414139705
HD2        15.8316763888       15.8201281282       -1.3501011442
C          12.4609396856       18.2482088920       -0.9662599991
O          11.4153944291       18.7746243614       -1.3603132135
N          13.4228291240       18.9419689469       -0.3501243152
H          14.2652362160       18.4516248029       -0.0821334420
CA         13.4149159566       20.3942706049       -0.1361130900
HA         12.8715997501       20.8692728209       -0.9547548498
CB         12.6860343991       20.7128781074        1.1804966319
HB2        11.6908263421       20.2665269197        1.1497044425
HB3        13.2255793547       20.2465366170        2.0066678161
CG         12.5261238924       22.1965572146        1.4603038124
CD1        13.3471919447       22.8330854441        2.4131281541
HD1        14.0893530752       22.2623687381        2.9584581560
CE1        13.2098148571       24.2142316796        2.6563227000
HE1        13.8413581839       24.7013872340        3.3867387682
CZ         12.2475763552       24.9636067908        1.9445525829
OH         12.1096472736       26.2966416374        2.1731915376
HH         12.7299103016       26.6052479991        2.8464157841
CE2        11.4255631439       24.3249992411        0.9913595313
HE2        10.6896984411       24.9036385032        0.4498870522
CD2        11.5653659506       22.9439529102        0.7505502357
HD2        10.9317355519       22.4568285863        0.0188341351
C          14.8476900814       20.9601263522       -0.1281925998
O          15.7848553897       20.2854501426        0.3107063874
N          15.0193253968       22.2028214942       -0.5962315299
H          14.1984252307       22.7012287389       -0.9118700963
CH3        16.3025203233       22.9028841936       -0.6540424210
HH31       16.6975923000       23.0432012475        0.3540581214
HH32       17.0206724791       22.3231143262       -1.2373291139
HH33       16.1750119554       23.8807505886       -1.1220228649
         110
Energy of minimum      5=    -152.0223550     first found at step       46 after                32352 function calls
HH31        0.0227798117        1.7992169917        1.8278556622
CH3         0.4472346708        2.5223571755        1.1329619793
HH32       -0.2616079683        3.3330919736        0.9713848729
HH33        0.6628010187        2.0336846592        0.1839630280
C           1.7266450895        3.0845136389        1.7067174418
O           2.1278626391        2.7065089637        2.8062280314
N           2.3645307952        3.9864699028        0.9633616150
H           1.9488818244        4.2455903487        0.0796546928
CA          3.6129951774        4.6638975888        1.3377118956
HA          3.6796479177        4.7132392866        2.4259019547
CB          4.8082921490        3.8463124189        0.8166674230