         110
Energy of minimum      1=    -153.2617709     first found at step       37 after                25467 function calls
HH31       -0.3847181170        4.4026731245       -1.1397399115
CH3         0.1457822924        3.4531534742       -1.0864748155
HH32        0.3769066852        3.1091093298       -2.0934918698
HH33       -0.4762867524        2.7150584361       -0.5822763818
C           1.4315608407        3.6419716071       -0.3162634466
O           1.6322480221        3.0025905556        0.7150948190
N           2.2995586991        4.5192739866       -0.8161878697
H           2.0391120816        5.0085425624       -1.6609573691
CA          3.5979889800        4.8611999413       -0.2204309885
HA          3.5483181108        4.7022837584        0.8581378116
CB          4.6800247558        3.9308354415       -0.7969378326
HB2         4.4172135888        2.8979589690       -0.5629596160
HB3         4.6851529582        4.0267308839       -1.8841620940
CG          6.0798497648        4.1983055722       -0.2713841824
CD1         7.0121293044        4.8993236194       -1.0636815827
HD1         6.7395447999        5.2291406984       -2.0590926901
CE1         8.2989302189        5.1794825511       -0.5629036657
HE1         9.0127419963        5.7165259984       -1.1724767589
CZ          8.6568861538        4.7573337754        0.7361283745
OH          9.8992078023        5.0172284427        1.2233639878
HH         10.4417605638        5.4865027044        0.5770338911
CE2         7.7232071354        4.0548103193        1.5280330091
HE2         8.0037667631        3.7328201058        2.5214690235
CD2         6.4369466238        3.7767269418        1.0246465474
HD2         5.7226419068        3.2385693889        1.6363583001
C           3.9592002322        6.3387983653       -0.4590862395
O           3.5807127190        6.9227675461       -1.4795150777
N           4.7131590367        6.9356074532        0.4689714705
H           5.0035836295        6.3879024181        1.2673557786
CA          5.2763967473        8.2859890128        0.3618907389
HA          5.4635725416        8.5092402144       -0.6898857675
CB          4.2642133509        9.3140466558        0.8995540361
HB2         3.3949653166        9.3321874696        0.2405721177
HB3         3.9217597611        8.9864778393        1.8827134638
CG          4.8119875686       10.7269601013        1.0171594858
CD1         5.1467193482       11.4575237759       -0.1415649400
HD1         4.9698222688       11.0310542741       -1.1217231033
CE1         5.7266050985       12.7376003178       -0.0283530812
HE1         5.9943533911       13.2939115518       -0.9162393783
CZ          5.9590638223       13.2958698039        1.2477425466
OH          6.5273008297       14.5232110286        1.3736577124
HH          6.8027633384       14.8883368634        0.5179815232
CE2         5.6061037528       12.5718109972        2.4056191439
HE2         5.7875012845       13.0045011898        3.3798719353
CD2         5.0394215899       11.2881829626        2.2899513810
HD2         4.7900079555       10.7293629023        3.1839800370
C           6.6202169405        8.3897909673        1.1076736318
O           6.8002514678        7.7964326521        2.1752429413
N           7.5510245301        9.1717113638        0.5558774031
H           7.3325937626        9.6220302046       -0.3223628820
CA          8.8518245759        9.4975154232        1.1469867683
HA2         8.6961470786        9.9790429679        2.1131440950
HA3         9.4277745085        8.5856332367        1.3064026667
C           9.6659488199       10.4396722004        0.2516947114
O           9.4324325578       10.5128121323       -0.9590558420
N          10.6145861946       11.1742926692        0.8358991556
H          10.7557520021       11.0795602564        1.8329472939
CA         11.4597455917       12.1416396748        0.1251197137
HA2        12.1471825712       11.6080278227       -0.5319097032
HA3        10.8310455734       12.7823190266       -0.4947826531
C          12.2830833201       13.0393911907        1.0550188272
O          12.3067871704       12.8418275744        2.2737845126
N          12.9532236906       14.0355237436        0.4725661236
H          12.8708170219       14.1362541514       -0.5298652432
CA         13.7442722054       15.0564312682        1.1713888304
HA         13.3771353255       15.1524298142        2.1946333532
CB         15.2151605346       14.6131752566        1.2262874929
HB2        15.2696097670       13.6354186444        1.7077952622
HB3        15.5884902989       14.4956543085        0.2074849963
CG         16.1229564180       15.5652400744        1.9837035462
CD1        16.0962202177       15.5881386866        3.3922021868
HD1        15.4423926111       14.9147157580        3.9336070416
CE1        16.9207116995       16.4852118372        4.0994702141
HE1        16.9059422586       16.5065647139        5.1805357770
CZ         17.7743322814       17.3642904117        3.3987575917
OH         18.5724637811       18.2241984738        4.0858946943
HH         19.1053065793       18.7647136964        3.4885799286
CE2        17.8017028956       17.3401255559        1.9870403334
HE2        18.4557972416       18.0117772631        1.4480449243
CD2        16.9761916028       16.4414603092        1.2825692474
HD2        16.9972828360       16.4284687555        0.1993958861
C          13.5919604390       16.4275370097        0.4882493595
O          13.4181436378       16.4989566740       -0.7328190463
N          13.6574159744       17.5104635437        1.2700087566
H          13.8835017220       17.3817858856        2.2459628702
CA         13.3902088966       18.8865550619        0.8278085536
HA         13.5004704515       18.9446885583       -0.2562157941
CB         11.9427178498       19.2741085017        1.1839285437
HB2        11.8494219990       19.3191634953        2.2704790289
HB3        11.7474438726       20.2783840672        0.8045127097
CG         10.8715295914       18.3404501115        0.6416508732
CD1        10.3498820867       17.3157732064        1.4575129812
HD1        10.7067554521       17.1967957089        2.4731304014
CE1         9.3679299626       16.4404049712        0.9544266776
HE1         8.9718859435       15.6521110264        1.5784387420
CZ          8.8950247302       16.5913547938       -0.3670091518
OH          7.9376413018       15.7521895203       -0.8482983601
HH          7.7205993506       15.9648019593       -1.7655193985
CE2         9.4155380601       17.6194729637       -1.1837937779
HE2         9.0564928421       17.7379032602       -2.1969976606
CD2        10.4027275851       18.4901303471       -0.6789365904
HD2        10.8028836491       19.2750221247       -1.3091811293
C          14.3785090083       19.8871850586        1.4525534997
O          14.8419230689       19.6947884600        2.5810641175
N          14.6788687504       20.9762757661        0.7340234535
H          14.2506787694       21.0692025287       -0.1773486000
CH3        15.5841066921       22.0399571668        1.1705179919
HH31       15.2076727849       22.5011743905        2.0859045205
HH32       15.6633007635       22.8059812495        0.3967719509
HH33       16.5778116141       21.6310341247        1.3646701884
         110
Energy of minimum      2=    -153.1133080     first found at step       63 after                43459 function calls
HH31       -0.2825653412        1.7492204861        5.6162273870
CH3         0.2025318547        2.1448718787        4.7250978068
HH32       -0.5117671707        2.7334271933        4.1513066849
HH33        0.5697336950        1.3220624765        4.1135281945
C           1.3633617165        3.0232714242        5.1288317719
O           1.6234281151        3.1932821982        6.3189002127
N           2.0584771039        3.5803395209        4.1391495988
H           1.7594658678        3.3939629221        3.1922089262
CA          3.2116806481        4.4735957987        4.3114256999
HA          3.1230421421        4.9912750331        5.2681017084
CB          4.5039605974        3.6361470438        4.3328248568
HB2         4.4638135275        2.9473532663        5.1781307682
HB3         4.5492509777        3.0337022153        3.4238028667
CG          5.7774820808        4.4578637082        4.4405928455
CD1         6.5465528952        4.7244692219        3.2890850090
HD1         6.2504236099        4.3151472606        2.3307047777
CE1         7.6937814408        5.5370481519        3.3775310512
HE1         8.2843982323        5.7489529421        2.4970556986
CZ          8.0782221479        6.0838952395        4.6202631772
OH          9.1852188151        6.8689307791        4.7002428840
HH          9.3394621241        7.1699373759        5.6047495135
CE2         7.3131440414        5.8091739771        5.7752500384
HE2         7.6071247473        6.2259535496        6.7288711649
CD2         6.1636489488        4.9990078558        5.6828817114
HD2         5.5731613161        4.7973538715        6.5687678319
C           3.2729964168        5.5431926357        3.2054914295
O           2.8629301846        5.2974353698        2.0666904269
N           3.8230895973        6.7164969579        3.5317483506
H           4.1487696241        6.8374321163        4.4809979943
CA          4.1826013974        7.7750053327        2.5825124513
HA          4.4137306691        7.3200168744        1.6177960989
CB          2.9942810538        8.7328366024        2.3892526458
HB2         2.1549550926        8.1771883112        1.9683877491
HB3         2.6822925716        9.1121351247        3.3638747298
CG          3.3052394572        9.9051995770        1.4759835607
CD1         3.5413730294       11.1818804063        2.0238013390
HD1         3.4531243455       11.3408343046        3.0917867218
CE1         3.9211290056       12.2492807315        1.1879467162
HE1         4.1166175892       13.2266862761        1.6067931521
CZ          4.0706693733       12.0425087917       -0.1998672845
OH          4.4841000069       13.0662166799       -0.9949107134
HH          4.5073283677       12.7996994796       -1.9235059564
CE2         3.8125388315       10.7686107868       -0.7519636132
HE2         3.9240928970       10.6080555270       -1.8156642793
CD2         3.4303795647        9.7026008012        0.0869146652
HD2         3.2498870810        8.7214721365       -0.3360729713
C           5.4387205898        8.5321181616        3.0550351517
O           5.6309017579        8.7456470045        4.2560255691
N           6.2809452388        8.9571187341        2.1098169914
H           6.0526006032        8.7660869447        1.1436314062
CA          7.5033289733        9.7297250582        2.3522325151
HA2         8.1796322601        9.1570150227        2.9876381248
HA3         7.2480670964       10.6549522334        2.8701259892
C           8.2399003272       10.0859392153        1.0548712338
O           7.8983641775        9.5875522072       -0.0227959400
N           9.2533836813       10.9489854600        1.1489419128
H           9.4895145353       11.3198787626        2.0594656933
CA         10.0437628528       11.4223082291        0.0063536056
HA2        10.6343043627       10.5987622907       -0.3961240969
HA3         9.3671569222       11.7668988443       -0.7769211578
C          10.9959835720       12.5705575613        0.3589550523
O          11.2679880050       12.8260139630        1.5361111906
N          11.4829593833       13.2694432668       -0.6695898480
H          11.1855995851       13.0058862547       -1.5980701558
CA         12.3426390788       14.4575563025       -0.5659375388
HA         12.4607049566       14.7250285617        0.4852190862
CB         13.7391667674       14.1526800353       -1.1308759793
HB2        14.3442593291       15.0588058923       -1.0718264064
HB3        13.6459990740       13.8960902688       -2.1875648931
CG         14.4799631661       13.0387027885       -0.4103988364
CD1        15.1526838273       13.3081185517        0.7983122302
HD1        15.1452731933       14.3094529967        1.2115040634
CE1        15.8342706833       12.2760649446        1.4732975604
HE1        16.3512666566       12.4770487055        2.4015904133
CZ         15.8446030575       10.9689862258        0.9408645645
OH         16.5025552817        9.9760083635        1.5962554939
HH         16.4316886115        9.1352975310        1.1257828537
CE2        15.1720837303       10.6990074246       -0.2711532383
HE2        15.1792166477        9.6983963818       -0.6815342354
CD2        14.4924283285       11.7338036308       -0.9441904911
HD2        13.9761842540       11.5236578443       -1.8730641149
C          11.6995025296       15.6593156019       -1.2778192733
O          11.0274240201       15.4941458539       -2.3011615002
N          11.9004055231       16.8663564951       -0.7389558840
H          12.5217927061       16.9398336249        0.0536280085
CA         11.1575996631       18.0801460500       -1.1138901446
HA         10.7145171450       17.9401931510       -2.1011714565
CB         10.0124764808       18.3079703080       -0.1071148294
HB2        10.4422066292       18.6194629103        0.8466114359
HB3         9.3893540154       19.1299440829       -0.4628787891
CG          9.1251868498       17.0954237850        0.1334776560
CD1         8.0858980290       16.7843232429       -0.7665485485
HD1         7.8983500276       17.4259686920       -1.6188314710
CE1         7.2995967912       15.6306370529       -0.5695345162
HE1         6.5056010020       15.3895564376       -1.2630266169
CZ          7.5582437944       14.7803354563        0.5277754675
OH          6.8192747434       13.6572432738        0.7196211430
HH          6.1166340825       13.5681718599        0.0586205973
CE2         8.5923745162       15.0968644987        1.4329984210
HE2         8.7856261717       14.4424375119        2.2714125902
CD2         9.3700004548       16.2542281015        1.2384140566
HD2        10.1686104973       16.4871778301        1.9318058972
C          12.0685412971       19.3189076623       -1.1894840992
O          13.1241800199       19.3678314915       -0.5489699284
N          11.6537066007       20.3341561223       -1.9574796375
H          10.7753257243       20.2229722398       -2.4460445370
CH3        12.3781650029       21.5923887339       -2.1405363228
HH31       13.3653388617       21.3990521500       -2.5654198728
HH32       12.5004654014       22.0983491046       -1.1806120520
HH33       11.8259886045       22.2480987572       -2.8164947547
         110
Energy of minimum      3=    -153.0758728     first found at step       28 after                19382 function calls
HH31        1.2490064296        1.2289939568       -1.5647161486
CH3         1.4156299032        2.2241937494       -1.9743315763
HH32        0.6169963033        2.8903868197       -1.6514887729
HH33        1.4292224126        2.1737127004       -3.0620520734
C           2.7406168778        2.7581238214       -1.4829718508
O           3.4393784711        2.0786384958       -0.7327582779
N           3.0840354770        3.9734818209       -1.9048355140
H           2.4368164796        4.4617161069       -2.5078124880
CA          4.3182642069        4.6808365011       -1.5387343758
HA          4.6523338429        4.3322057192       -0.5600164757
CB          5.4139716932        4.3530379411       -2.5686281535
HB2         5.5863509228        3.2755750009       -2.5682197046
HB3         5.0558834108        4.6245974749       -3.5632694400
CG          6.7398887600        5.0494231475       -2.3149236734
CD1         7.1027992871        6.1803126300       -3.0750097600
HD1         6.4465343648        6.5419873356       -3.8575936274
CE1         8.3161309021        6.8482988428       -2.8166792369
HE1         8.5930520526        7.7147677163       -3.4015439358
CZ          9.1717893555        6.3846640200       -1.7935883777
OH         10.3478939062        7.0192693786       -1.5437739628
HH         10.4835623375        7.7626238124       -2.1448273278
CE2         8.8079964379        5.2519892253       -1.0338890032
HE2         9.4681757375        4.9008827048       -0.2527579077
CD2         7.5937260750        4.5864301508       -1.2943620491
HD2         7.3174286002        3.7182724164       -0.7078721927
C           4.0925006684        6.2007307267       -1.4417443139
O           3.2615489395        6.7612389139       -2.1634650546
N           4.8507540166        6.8709330124       -0.5689296628
H           5.5262291502        6.3479061624       -0.0285090791
CA          4.8938649765        8.3309522692       -0.4299788287
HA          4.6854021276        8.7853345402       -1.4001403975
CB          3.8111964616        8.7870798383        0.5625564685
HB2         2.8402488085        8.4311283967        0.2145599748
HB3         3.9998905967        8.3230048400        1.5321835503
CG          3.7289093760       10.2930723287        0.7369644246
CD1         4.2855961801       10.9075422391        1.8771035974
HD1         4.7583772510       10.3043138178        2.6429668240
CE1         4.2360324769       12.3082444854        2.0218002633
HE1         4.6649825797       12.7783794370        2.8962333184
CZ          3.6269394024       13.0993161891        1.0231689604
OH          3.5757931605       14.4513796102        1.1555396789
HH          3.9908432194       14.7415196285        1.9781098840
CE2         3.0681953122       12.4827342807       -0.1168741617
HE2         2.6025946282       13.0935566113       -0.8781466525
CD2         3.1201362665       11.0820641965       -0.2590271141
HD2         2.6919549385       10.6123712712       -1.1366097946
C           6.2895305315        8.7987259497        0.0220068832
O           6.9661581181        8.1059064330        0.7882221508
N           6.7150777906        9.9807101961       -0.4309313852
H           6.1068027598       10.5111925348       -1.0401875014
CA          7.9983046852       10.5968017905       -0.0777585147
HA2         8.0403518885       10.7472284753        1.0015675249
HA3         8.8132310261        9.9290154828       -0.3589500780
C           8.2239099281       11.9498135002       -0.7631864456
O           7.4236683619       12.3796787667       -1.6000513942
N           9.3183613620       12.6267702561       -0.4106600282
H           9.9339077525       12.2187060543        0.2806822566
CA          9.7019821424       13.9356879946       -0.9531269341
HA2         9.8242814135       13.8584346182       -2.0340478288
HA3         8.9093100717       14.6574873312       -0.7531223789
C          11.0076964563       14.4768430332       -0.3582043386
O          11.6314179003       13.8326568129        0.4912909820
N          11.4226964061       15.6644900488       -0.8050123418
H          10.8505126543       16.1399927048       -1.4895031740
CA         12.6356407421       16.3621039234       -0.3564246045
HA         12.8620343560       16.0625303458        0.6684088223
CB         13.8167189939       15.9496165619       -1.2531804914
HB2        13.9468282497       14.8681111881       -1.1890958111
HB3        13.5729209931       16.1871142989       -2.2902129715
CG         15.1351473120       16.6110652753       -0.8915805309
CD1        15.6111922699       17.7019082615       -1.6474034550
HD1        15.0513036881       18.0553014460       -2.5049272830
CE1        16.8114137698       18.3433100583       -1.2835137862
HE1        17.1801100642       19.1822577620       -1.8573547634
CZ         17.5411898541       17.8941222029       -0.1622355198
OH         18.7008260318       18.5139058922        0.1831958175
HH         19.0993747501       18.1072922911        0.9632992752
CE2        17.0669598799       16.7976700311        0.5911598144
HE2        17.6259446230       16.4504880875        1.4494123578
CD2        15.8646252742       16.1597163739        0.2261812329
HD2        15.5000739324       15.3219344825        0.8087826597
C          12.4453575834       17.8903769560       -0.3646914734
O          11.6850337694       18.4247592415       -1.1782125949
N          13.1533298759       18.5949674432        0.5232215731
H          13.7756782915       18.0911713402        1.1402682144
CA         13.2214031188       20.0597890206        0.5823513976
HA         13.0844986122       20.4609157147       -0.4233098935
CB         12.0874924049       20.5909360589        1.4751345379
HB2        11.1357063539       20.2129174780        1.0985143966
HB3        12.2166266873       20.1976641484        2.4849794727
CG         12.0015590097       22.1055660690        1.5343858295
CD1        11.4649446751       22.8203014114        0.4448974494
HD1        11.1007655898       22.2873477396       -0.4255337245
CE1        11.3989196688       24.2272975374        0.4841010686
HE1        10.9863404843       24.7742812879       -0.3527905586
CZ         11.8713451506       24.9242112270        1.6178655275
OH         11.8115433964       26.2816757733        1.6629637228
HH         11.4239009755       26.6449211761        0.8561283648
CE2        12.4079949013       24.2074274838        2.7088101122
HE2        12.7690391862       24.7462700766        3.5740752465
CD2        12.4727338217       22.8006820785        2.6664526787
HD2        12.8892674059       22.2556831099        3.5050553772
C          14.5977568077       20.5247220483        1.0944380822
O          15.2024359771       19.8667234172        1.9474779293
N          15.0881383035       21.6635970871        0.5892952360
H          14.5207127111       22.1600097949       -0.0840145274
CH3        16.3781164331       22.2493494845        0.9537708892
HH31       17.1829776946       21.5407677447        0.7472578598
HH32       16.5525533944       23.1596705692        0.3773051092
HH33       16.3896164706       22.4973405686        2.0169601139
         110
Energy of minimum      4=    -152.9751113     first found at step        0 after                  645 function calls
HH31        0.4604694435        1.0017198054        4.8593300016
CH3         0.8444579370        1.5324557500        3.9893626596
HH32        0.0606611015        2.1614900597        3.5700365729
HH33        1.1740416379        0.8145014828        3.2398394867
C           2.0130252084        2.3974559901        4.3996448745
O           2.3829633277        2.4184880823        5.5724577740
N           2.5916188350        3.1099558053        3.4349818519
H           2.2069234820        3.0389690073        2.5034153837
CA          3.7292940044        4.0206470890        3.6195051125
HA          3.7200849682        4.4002223013        4.6426730080
CB          5.0399608080        3.2432395009        3.4039847384
HB2         5.0895602155        2.4291820606        4.1288951738
HB3         5.0236600589        2.7928030612        2.4099408310
CG          6.2968821221        4.0846760433        3.5434533656
CD1         6.9860053061        4.5244170553        2.3945080676
HD1         6.6330774760        4.2442567950        1.4091756540
CE1         8.1318271726        5.3343415418        2.5219337772
HE1         8.6594898656        5.6696218358        1.6395050279
CZ          8.5920648207        5.7073746870        3.8036787544
OH          9.7015519201        6.4820960365        3.9348413821
HH         10.0865355758        6.6972129956        3.0759010051
CE2         7.9020596531        5.2658508923        4.9531949202
HE2         8.2602922895        5.5536257965        5.9320385957
CD2         6.7561991830        4.4564346449        4.8224236393
HD2         6.2284761212        4.1209385227        5.7072742339
C           3.6457871928        5.2305690205        2.6710378457
O           3.1288774043        5.1209804279        1.5546431040
N           4.1778958945        6.3773916220        3.1041609008
H           4.6051213463        6.3854971307        4.0202942566
CA          4.3295192248        7.5971143001        2.3028036565
HA          4.4659660575        7.3185945110        1.2564085898
CB          3.0550751859        8.4506853681        2.4158543661
HB2         2.1993042477        7.8515414930        2.1008615553
HB3         2.8982347455        8.7180413817        3.4623095541
CG          3.0830916543        9.7151441279        1.5758585146
CD1         3.3346773724       10.9636468612        2.1799803656
HD1         3.4897276945       11.0288027168        3.2502676155
CE1         3.3934410717       12.1301402818        1.3922742223
HE1         3.5882752787       13.0904637926        1.8496181173
CZ          3.1999964297       12.0516119821       -0.0035194782
OH          3.2590043216       13.1797864195       -0.7597760158
HH          3.1090537209       12.9864808148       -1.6942514235
CE2         2.9454557737       10.8009445838       -0.6079078301
HE2         2.7961937118       10.7384259867       -1.6772686900
CD2         2.8881474459        9.6359118126        0.1825823512
HD2         2.6951078739        8.6768719310       -0.2834921598
C           5.5695916748        8.3954149052        2.7456376910
O           5.9169861821        8.4096598803        3.9305471793
N           6.2260223589        9.0778113967        1.8039395559
H           5.8805774194        9.0430431736        0.8541695413
CA          7.4010726155        9.9202680072        2.0496899042
HA2         7.1382134280       10.7067706986        2.7579856038
HA3         8.1958636786        9.3181996251        2.4911619683
C           7.9443616431       10.5790572778        0.7760324162
O           7.4751262571       10.3023406256       -0.3324718991
N           8.9390607470       11.4549602795        0.9300561550
H           9.2786653618       11.6368084326        1.8654531248
CA          9.5846900272       12.1871196427       -0.1662006547
HA2        10.0194968343       11.4766464492       -0.8701039548
HA3         8.8370366764       12.7761883606       -0.6985018120
C          10.6936648822       13.1331420594        0.3101061052
O          10.9727447376       13.2286822968        1.5095326891
N          11.3280904866       13.8348898941       -0.6319341695
H          11.0332585086       13.7154298429       -1.5915317579
CA         12.4068816739       14.8019243776       -0.3863263269
HA         12.2876206059       15.2239790020        0.6131263349
CB         13.7607013721       14.0730243729       -0.4456102095
HB2        13.7615084570       13.2715415012        0.2949018605
HB3        13.8693459745       13.6084439421       -1.4272547478
CG         14.9626687470       14.9630635744       -0.1828650821
CD1        15.2658072754       15.3630425474        1.1335731247
HD1        14.6552008363       15.0183475709        1.9596538401
CE1        16.3637487014       16.2112755982        1.3785068020
HE1        16.6026469910       16.5203841336        2.3868227782
CZ         17.1614960845       16.6641474662        0.3057062951
OH         18.2242617708       17.4767632155        0.5477955165
HH         18.6886036255       17.7038137295       -0.2679209023
CE2        16.8575767717       16.2628771953       -1.0136574242
HE2        17.4682359170       16.6070430857       -1.8371590764
CD2        15.7596444503       15.4134907903       -1.2552060845
HD2        15.5274438320       15.1106246026       -2.2692314012
C          12.3613421254       15.9656402082       -1.3938361372
O          11.9348802757       15.7878022440       -2.5392892967
N          12.8158138023       17.1509571262       -0.9759416305
H          13.1784673088       17.2159483503       -0.0345784543
CA         12.9495246609       18.3495999782       -1.8128524222
HA         13.1588006651       18.0427145618       -2.8390191299
CB         11.6252805203       19.1321948832       -1.8000095363
HB2        10.8187408287       18.4659032208       -2.1101161454
HB3        11.4100263092       19.4487360321       -0.7779481286
CG         11.6096595707       20.3444741764       -2.7139583327
CD1        11.7329420044       21.6418570102       -2.1765628734
HD1        11.8282626560       21.7795860756       -1.1061187249
CE1        11.7380012617       22.7637970435       -3.0290918369
HE1        11.8339384554       23.7584370358       -2.6153740665
CZ         11.6192282889       22.5893944863       -4.4253579727
OH         11.6240269373       23.6669454681       -5.2542989592
HH         11.7141483704       24.4920197862       -4.7600059049
CE2        11.4950824658       21.2899529776       -4.9621466615
HE2        11.4034866191       21.1623807087       -6.0321221833
CD2        11.4903213980       20.1702741946       -4.1070912219
HD2        11.3936598018       19.1742206517       -4.5226863153
C          14.1193611396       19.2305010005       -1.3347355055
O          14.4083491052       19.2905014392       -0.1351586272
N          14.7830143303       19.9275940308       -2.2655612798
H          14.4682551020       19.8472995459       -3.2228458629
CH3        15.9090107460       20.8211009663       -1.9939061295
HH31       16.7066254844       20.2761042086       -1.4850955573
HH32       15.5853064438       21.6479948091       -1.3586898369
HH33       16.2993878101       21.2267841021       -2.9290604069
         110
Energy of minimum      5=    -152.9588522     first found at step       12 after                 8568 function calls
HH31       -0.1840417163        1.1176070945        5.1853787259
CH3         0.2592121380        1.6118220728        4.3221010464
HH32       -0.4843740285        2.2472822608        3.8434296938
HH33        0.6085046504        0.8633490575        3.6124167216
C           1.4272340758        2.4593004255        4.7688799886
O           1.7353833150        2.5067135510        5.9586633397
N           2.0745815882        3.1273759191        3.8161908520
H           1.7376892071        3.0377401259        2.8678684770
CA          3.2248843548        4.0143811167        4.0346557871
HA          3.1720122034        4.4250263700        5.0444130265
CB          4.5238844920        3.1981217681        3.9120725433