         110
Energy of minimum      1=    -153.4201795     first found at step       12 after                 9511 function calls
HH31        0.1771517246        2.7073333241        1.1871617563
CH3         0.5219567282        3.4464606874        0.4655168245
HH32       -0.0664750757        4.3572215720        0.5661096556
HH33        0.4105627661        3.0514864050       -0.5431736643
C           1.9773016336        3.7614762445        0.7201713708
O           2.5775802639        3.2041318468        1.6376847105
N           2.5420343143        4.6541869752       -0.0904633643
H           1.9635822294        5.0704452656       -0.8066800945
CA          3.9358793416        5.1104863431       -0.0095250507
HA          4.2817611982        5.0207498059        1.0216773663
CB          4.8165642639        4.2098248310       -0.8948980938
HB2         4.7490029354        3.1833724346       -0.5309606015
HB3         4.4223454105        4.2210167209       -1.9126240220
CG          6.2811217836        4.6118492446       -0.9305401063
CD1         6.7871405109        5.3448113239       -2.0237038069
HD1         6.1407774979        5.5956287172       -2.8561989366
CE1         8.1312877141        5.7660579376       -2.0308022124
HE1         8.5237480224        6.3320612204       -2.8642806329
CZ          8.9757542333        5.4527794171       -0.9444518208
OH         10.2723072813        5.8614364245       -0.9558506530
HH         10.7383643343        5.5781613569       -0.1588513059
CE2         8.4709564438        4.7113289781        0.1465241480
HE2         9.1170865680        4.4686551749        0.9790857973
CD2         7.1247886322        4.2943532825        0.1523525479
HD2         6.7376333787        3.7327115955        0.9942614302
C           4.0748240920        6.5874901210       -0.4221061376
O           3.3225079922        7.0785512894       -1.2696734409
N           5.0599006613        7.2849739981        0.1515557038
H           5.6488530500        6.8087215180        0.8210901524
CA          5.4849802566        8.6321346138       -0.2441385654
HA          5.2908687918        8.7640783636       -1.3099767775
CB          4.6734775165        9.6851064937        0.5304342411
HB2         3.6106714348        9.5157690784        0.3507993744
HB3         4.8497931904        9.5549044478        1.5995599229
CG          4.9997765952       11.1156258751        0.1384259881
CD1         5.8125372114       11.9145199279        0.9686776345
HD1         6.1817971666       11.5220167982        1.9085077116
CE1         6.1592588538       13.2214272344        0.5718528520
HE1         6.7857599613       13.8368865165        1.2023386874
CZ          5.6925520929       13.7335400730       -0.6577074788
OH          6.0305115693       14.9921980596       -1.0448951038
HH          5.6396453414       15.1995289910       -1.9040247206
CE2         4.8728524151       12.9353088684       -1.4852525800
HE2         4.5127263211       13.3260399752       -2.4272258925
CD2         4.5289972201       11.6288624492       -1.0862215831
HD2         3.9055887800       11.0160211469       -1.7265640498
C           6.9958974135        8.8222880441       -0.0141560875
O           7.5702326790        8.2343092220        0.9075292268
N           7.6343333159        9.6674651292       -0.8275942237
H           7.1001070738       10.1390947773       -1.5450042040
CA          9.0478851121       10.0362784174       -0.7077330331
HA2         9.2795626865       10.2386271463        0.3388144339
HA3         9.6740692987        9.2081600897       -1.0407084605
C           9.4037986134       11.2779827170       -1.5330626317
O           8.7191298431       11.6104554784       -2.5052236098
N          10.4714771394       11.9740742354       -1.1395858098
H          10.9892366653       11.6425004317       -0.3362833211
CA         10.9415284471       13.2168991722       -1.7625951618
HA2        11.2984393332       13.0091628898       -2.7717200223
HA3        10.1124194835       13.9220979780       -1.8333844543
C          12.0763838867       13.8816621324       -0.9744326526
O          12.6251098616       13.2896288789       -0.0393639079
N          12.4230876017       15.1175262139       -1.3415678898
H          11.9225823198       15.5442853200       -2.1090000098
CA         13.4455548245       15.9357913919       -0.6758302773
HA         13.5694696447       15.5839923735        0.3498722551
CB         14.7898240202       15.7663474764       -1.4019947188
HB2        15.0527203888       14.7072943039       -1.4131856479
HB3        14.6757483133       16.0847022708       -2.4396837239
CG         15.9355469702       16.5355385600       -0.7689351481
CD1        16.3554450603       17.7635829463       -1.3195439949
HD1        15.8714047107       18.1547933516       -2.2064404810
CE1        17.4019307809       18.4891374968       -0.7163972903
HE1        17.7229594332       19.4309998710       -1.1399001337
CZ         18.0323161931       17.9855453640        0.4425756118
OH         19.0470492678       18.6766230610        1.0267364076
HH         19.2376371533       19.4945619581        0.5498284983
CE2        17.6120274961       16.7551055732        0.9919065652
HE2        18.0996478245       16.3737777108        1.8785617160
CD2        16.5645650856       16.0326290425        0.3871092759
HD2        16.2436749741       15.0891949930        0.8125550735
C          13.0285593781       17.4153873784       -0.6122792674
O          12.4331066010       17.9388006149       -1.5590035404
N          13.3606124139       18.0864098035        0.4953652263
H          13.9021613843       17.6022626216        1.1974625004
CA         13.0400929598       19.4927204333        0.7734605599
HA         12.8660474295       20.0178814967       -0.1671669302
CB         11.7585824875       19.5796668088        1.6226774615
HB2        11.9083820039       19.0228615967        2.5494244441
HB3        11.5957723813       20.6224116456        1.9002110459
CG         10.4991574864       19.0757436989        0.9372146288
CD1         9.7861502799       19.9278606859        0.0705175879
HD1        10.1351915019       20.9381281432       -0.1052000035
CE1         8.6195525878       19.4681966877       -0.5709481158
HE1         8.0692277148       20.1177140734       -1.2377076914
CZ          8.1627685211       18.1515534092       -0.3498985646
OH          7.0376665398       17.7176142693       -0.9763892981
HH          6.8348143343       16.7945991151       -0.7589993812
CE2         8.8744462425       17.2968987267        0.5204159953
HE2         8.5233025570       16.2886411043        0.6920964124
CD2        10.0390321559       17.7618370026        1.1646753809
HD2        10.5832307904       17.1060544719        1.8332064767
C          14.2040358778       20.1954935825        1.4947672045
O          14.9329164353       19.5701592884        2.2716269117
N          14.3632979052       21.5047001029        1.2642411971
H          13.7202401789       21.9496487528        0.6231670647
CH3        15.4030758036       22.3373318934        1.8699068331
HH31       16.3910620567       21.9474709348        1.6165377913
HH32       15.3238918020       23.3623529783        1.5027725234
HH33       15.2941973379       22.3425896676        2.9563898937
         110
Energy of minimum      2=    -153.2478295     first found at step       10 after                 8116 function calls
HH31        0.6525345477        2.9560498857        1.8564220393
CH3         0.9301282450        3.6862608382        1.0976704435
HH32        0.3713240025        4.6074729008        1.2556602291
HH33        0.7043055133        3.2893353323        0.1090743842
C           2.4095039454        3.9769908247        1.1926836734
O           3.0954645613        3.4129378783        2.0436115686
N           2.8987331465        4.8565748566        0.3209064268
H           2.2536270550        5.2802626298       -0.3311503698
CA          4.3005730378        5.2896484139        0.2491273367
HA          4.7537147067        5.1956783754        1.2374883086
CB          5.0638021759        4.3720101106       -0.7221041398
HB2         4.9871587593        3.3429245828       -0.3674126866
HB3         4.5825333174        4.4150758606       -1.7007734988
CG          6.5353390260        4.7131257104       -0.8792342004
CD1         6.9825415436        5.4164861875       -2.0165408128
HD1         6.2800288887        5.6984533258       -2.7917108161
CE1         8.3426310254        5.7603924358       -2.1473317533
HE1         8.6840378136        6.2992706803       -3.0205964447
CZ          9.2611596936        5.3994274619       -1.1373323735
OH         10.5765228833        5.7206608905       -1.2601302818
HH         10.7502064773        6.1899699089       -2.0860419785
CE2         8.8125825533        4.6938000251       -0.0001108983
HE2         9.5210344197        4.4186656851        0.7691034477
CD2         7.4516584553        4.3525860379        0.1283740293
HD2         7.1109418933        3.8123438986        1.0036314412
C           4.4151529069        6.7638355934       -0.1802798109
O           3.5792993867        7.2643773082       -0.9395265937
N           5.4607258176        7.4531954907        0.2863540798
H           6.1217059361        6.9700426352        0.8793666443
CA          5.8113462529        8.8247706390       -0.1008747255
HA          5.4981917047        8.9912504647       -1.1330037353
CB          5.0639204534        9.8233040449        0.8013717277
HB2         3.9922632551        9.6307777881        0.7309057739
HB3         5.3588203676        9.6545093503        1.8385062946
CG          5.3078666857       11.2784912622        0.4412434738
CD1         6.1652758061       12.0736587341        1.2291320033
HD1         6.6291542994       11.6592061261        2.1161115758
CE1         6.4328933290       13.4063227521        0.8576369276
HE1         7.0926636627       14.0192758610        1.4557378344
CZ          5.8425159701       13.9478425726       -0.3042902627
OH          6.1034884819       15.2318082389       -0.6671370485
HH          5.6357704613       15.4558925691       -1.4825496882
CE2         4.9785596468       13.1529630977       -1.0889343889
HE2         4.5234220751       13.5663114377       -1.9786881561
CD2         4.7134020941       11.8209757579       -0.7151129210
HD2         4.0547901245       11.2114627962       -1.3225516993
C           7.3330794019        9.0529641819       -0.0290911779
O           8.0277466060        8.4198790041        0.7717920450
N           7.8481073606        9.9814255843       -0.8395065734
H           7.2198136680       10.4827869696       -1.4532556379
CA          9.2487588639       10.4137574228       -0.8351887551
HA2         9.5797562080       10.5510535116        0.1951220771
HA3         9.8732032994        9.6467568746       -1.2935735364
C           9.4596175624       11.7295586862       -1.5930972331
O           8.6676467018       12.0898481088       -2.4689610865
N          10.5246635575       12.4557759718       -1.2502064499
H          11.1342795551       12.0987023605       -0.5261947606
CA         10.8703482744       13.7630723644       -1.8205531471
HA2        11.1293581698       13.6468643975       -2.8733141580
HA3        10.0072183990       14.4266070969       -1.7537391645
C          12.0497919127       14.4292339560       -1.1020093122
O          12.7109378421       13.8060742621       -0.2650295506
N          12.3095247235       15.7001552731       -1.4178307953
H          11.7198432100       16.1503716531       -2.1042355283
CA         13.3590697811       16.5213566834       -0.7994598495
HA         13.5973397863       16.1116402296        0.1836703741
CB         14.6312501312       16.4607804614       -1.6601596227
HB2        14.9341257127       15.4179309992       -1.7676942315
HB3        14.4033543497       16.8385269847       -2.6584224828
CG         15.8014362388       17.2409992914       -1.0883036827
CD1        16.1138552490       18.5208413224       -1.5902592127
HD1        15.5287160362       18.9452314922       -2.3973765664
CE1        17.1840249503       19.2549061693       -1.0414119936
HE1        17.4224452071       20.2365732151       -1.4274323977
CZ         17.9461326758       18.7078650852        0.0141156170
OH         18.9840730046       19.4074224780        0.5449665988
HH         19.0925483184       20.2628469516        0.1098939426
CE2        17.6333139114       17.4256902197        0.5146668512
HE2        18.2214576834       17.0113912055        1.3220013851
CD2        16.5618699242       16.6947623459       -0.0355017526
HD2        16.3237130632       15.7114989630        0.3524648004
C          12.8913792982       17.9729632544       -0.5968832159
O          12.1912803852       18.5293452347       -1.4484095034
N          13.2962088532       18.5842401571        0.5210970463
H          13.9190248403       18.0806801406        1.1368381349
CA         12.9425887597       19.9512310612        0.9262442678
HA         12.6619044028       20.5297193570        0.0445170399
CB         11.7404937761       19.9175450596        1.8880720348
HB2        11.9961378930       19.3053682148        2.7548029238
HB3        11.5601993326       20.9294555412        2.2546495348
CG         10.4466923387       19.4024433961        1.2791907605
CD1         9.6168204942       20.2806488050        0.5540999768
HD1         9.9000568416       21.3192203540        0.4336473584
CE1         8.4188554983       19.8103562054       -0.0181121596
HE1         7.7791321774       20.4797228892       -0.5766828177
CZ          8.0479913790       18.4569672417        0.1296779048
OH          6.8928219344       18.0125216634       -0.4311989003
HH          6.7600149928       17.0634652927       -0.2819272410
CE2         8.8766440176       17.5760393861        0.8587952074
HE2         8.5913350015       16.5394659368        0.9745579575
CD2        10.0720032383       18.0515027196        1.4353698810
HD2        10.7061912543       17.3754033357        1.9955405378
C          14.1359970283       20.6596289195        1.5917535697
O          14.9597685681       20.0191536516        2.2528530923
N          14.2162046265       21.9880085172        1.4451234801
H          13.4982374883       22.4436113596        0.8979207933
CH3        15.2698497460       22.8276107355        2.0162184239
HH31       16.2464569954       22.5065347384        1.6481698581
HH32       15.1124463132       23.8704532977        1.7343853664
HH33       15.2612532722       22.7516310081        3.1054763357
         110
Energy of minimum      3=    -153.0984208     first found at step        4 after                 3566 function calls
HH31        1.7304015103        1.2029691198        0.0321301550
CH3         1.8933378964        2.1544840204       -0.4718957537
HH32        1.1019069237        2.8515935272       -0.2007290513
HH33        1.8893835001        2.0018504229       -1.5501147076
C           3.2275586588        2.7264392085       -0.0537707063
O           3.9362537389        2.1174723546        0.7460402095
N           3.5677129481        3.8952025666       -0.5934823179
H           2.9123432373        4.3274020935       -1.2295168205
CA          4.8096694433        4.6284559962       -0.3149231527
HA          5.1583125305        4.3719626972        0.6869220723
CB          5.8877976795        4.2004116262       -1.3263961894
HB2         6.0559504980        3.1267524205       -1.2282881340
HB3         5.5152542843        4.3801547488       -2.3364387062
CG          7.2202616767        4.9101725507       -1.1587695186
CD1         7.5755307704        5.9639065023       -2.0258143855
HD1         6.9083214615        6.2552362015       -2.8282399275
CE1         8.7955199877        6.6462440973       -1.8492817237
HE1         9.0665600053        7.4533987458       -2.5160351311
CZ          9.6655649611        6.2744708343       -0.8011174860
OH         10.8480719456        6.9229659348       -0.6293911372
HH         10.9768169597        7.6072484053       -1.2983070106
CE2         9.3094192259        5.2188802756        0.0656736971
HE2         9.9805934370        4.9378514435        0.8655659981
CD2         8.0884383876        4.5388222751       -0.1131548881
HD2         7.8180501444        3.7301363066        0.5553711368
C           4.5897719031        6.1517001060       -0.3578907926
O           3.7486062678        6.6453211924       -1.1157302586
N           5.3639045895        6.8979040927        0.4357307436
H           6.0470767830        6.4253475883        1.0117979248
CA          5.4121296410        8.3643822845        0.4367110094
HA          5.1890194420        8.7266468190       -0.5683362263
CB          4.3463148801        8.9151907847        1.3991134814
HB2         3.3689948732        8.5328542133        1.1004463265
HB3         4.5488120784        8.5421721735        2.4045977418
CG          4.2714618666       10.4312369869        1.4342401751
CD1         4.8449019009       11.1459686431        2.5053808939
HD1         5.3246979409       10.6150049351        3.3188143177
CE1         4.8030547679       12.5540686056        2.5173929640
HE1         5.2431488014       13.1080071497        3.3352037002
CZ          4.1863991132       13.2524806133        1.4573060393
OH          4.1496768345       14.6113783947        1.4725375872
HH          3.7003764317       14.9610442880        0.6921784845
CE2         3.6098239472       12.5358919661        0.3857151983
HE2         3.1360983305       13.0689413639       -0.4274041318
CD2         3.6540692507       11.1275553469        0.3761916578
HD2         3.2131706695       10.5796718654       -0.4482351085
C           6.8156823668        8.8681633323        0.8206502659
O           7.5058423289        8.2452155445        1.6333695762
N           7.2327964397       10.0048227898        0.2572828555
H           6.6134600741       10.4799756848       -0.3855673922
CA          8.5204031604       10.6501553905        0.5338429038
HA2         8.5831296683       10.8874717611        1.5964388048
HA3         9.3321964490        9.9636985521        0.2912611193
C           8.7269236512       11.9438685020       -0.2630420836
O           7.9128518894       12.2983093850       -1.1216421372
N           9.8204332272       12.6547746417        0.0183954289
H          10.4478242346       12.3088658374        0.7326037230
CA         10.1865486463       13.9177844443       -0.6338648163
HA2        10.2966269320       13.7533946378       -1.7063237522
HA3         9.3902491133       14.6475946303       -0.4834800705
C          11.4946239824       14.5154256782       -0.1014898449
O          12.1345093929       13.9467628632        0.7889133801
N          11.8934559644       15.6664385419       -0.6478128971
H          11.3086541845       16.0806756517       -1.3608609767
CA         13.1054789524       16.4075866588       -0.2725487551
HA         13.3470774913       16.1934088354        0.7700634901
CB         14.2791572336       15.9336011697       -1.1483731395
HB2        14.4197109721       14.8618371788       -0.9991888756
HB3        14.0206003838       16.0848622202       -2.1979194196
CG         15.5959282921       16.6324675578       -0.8581693392
CD1        16.0528399028       17.6627682016       -1.7052453544
HD1        15.4792977065       17.9416185987       -2.5810318661
CE1        17.2516510999       18.3408632389       -1.4096388517
HE1        17.6057235629       19.1338670654       -2.0537213914
CZ         17.9991679199       17.9890761836       -0.2654910704
OH         19.1573725993       18.6438062519        0.0139778454
HH         19.5691200422       18.3043851775        0.8189590733
CE2        17.5440879947       16.9530075298        0.5795949171
HE2        18.1166800369       16.6803926861        1.4556176895
CD2        16.3431172880       16.2782493347        0.2826558736
HD2        15.9932822626       15.4871449885        0.9353200540
C          12.9013626618       17.9286482039       -0.4013609790
O          12.1265227747       18.3896206832       -1.2455173352
N          13.6135946474       18.7081490884        0.4178868611
H          14.2478470185       18.2607238585        1.0655037956
CA         13.6691433382       20.1734738917        0.3580775063
HA         13.5166597930       20.4911475868       -0.6747980904
CB         12.5411929143       20.7657426497        1.2194087479
HB2        11.5884150506       20.3510736618        0.8863928114
HB3        12.6857972843       20.4561366696        2.2559221133
CG         12.4425856144       22.2795009903        1.1577047793
CD1        12.9238065770       23.0673936446        2.2229769315
HD1        13.3567508203       22.5940720979        3.0961579592
CE1        12.8484528058       24.4728176693        2.1544472386
HE1        13.2191762413       25.0759688562        2.9720349215
CZ         12.2897110214       25.0946781224        1.0163791585
OH         12.2142205871       26.4500979624        0.9426889754
HH         12.5770981051       26.8673253676        1.7347979708
CE2        11.8076608985       24.3046944186       -0.0492972055
HE2        11.3800102457       24.7862674797       -0.9180386832
CD2        11.8844308398       22.8997673977        0.0223058479
HD2        11.5124680108       22.2964358397       -0.7973330415
C          15.0472272231       20.6892807697        0.8136983115
O          15.6683453913       20.1066364287        1.7086913068
N          15.5206985395       21.7882961384        0.2131397304
H          14.9404545873       22.2246020697       -0.4902180252
CH3        16.8092344448       22.4123666649        0.5134336975
HH31       17.6183313076       21.6964702741        0.3540919982
HH32       16.9681209408       23.2751188592       -0.1360569337
HH33       16.8309204477       22.7446965314        1.5531861890
         110
Energy of minimum      4=    -153.0819266     first found at step        2 after                 1993 function calls
HH31        1.7762024784        1.1675485043       -0.1155421745
CH3         1.9328411723        2.1272808311       -0.6057961526
HH32        1.1349597109        2.8140993956       -0.3273688661
HH33        1.9332811013        1.9896493213       -1.6860398106
C           3.2611236195        2.7041715768       -0.1757159383
O           3.9724281930        2.0898999071        0.6176973765
N           3.5933015515        3.8830622627       -0.6980901967
H           2.9362952692        4.3187316522       -1.3300564602
CA          4.8284327783        4.6223969748       -0.4056245751
HA          5.1762578421        4.3548233138        0.5936034820
CB          5.9129753772        4.2172586809       -1.4196949103
HB2         6.0906837491        3.1439996845       -1.3349837149
HB3         5.5413146124        4.4066267077       -2.4283034252
CG          7.2384509672        4.9370057597       -1.2395467505
CD1         7.5863541930        6.0046120265       -2.0924982173
HD1         6.9187081433        6.2996603332       -2.8932010817
CE1         8.7994507281        6.6959806694       -1.9040308913
HE1         9.0648424427        7.5137579489       -2.5600248176
CZ          9.6699422936        6.3194101277       -0.8579608991
OH         10.8458753744        6.9766752817       -0.6748297277
HH         10.9704385539        7.6698764557       -1.3352864722
CE2         9.3211609942        5.2499897152       -0.0052403587
HE2         9.9926505040        4.9653748603        0.7931169682
CD2         8.1070873110        4.5608644265       -0.1960261078
HD2         7.8423471387        3.7415372260        0.4617154926
C           4.5963648828        6.1442689891       -0.4280866887
O           3.7538257712        6.6417182833       -1.1818790133
N           5.3619865599        6.8853929551        0.3784387293
H           6.0466425443        6.4101275658        0.9504938513
CA          5.3995966481        8.3520138722        0.3991861528
HA          5.1769701786        8.7261742150       -0.6016010574
CB          4.3269873719        8.8821352182        1.3655348907
HB2         3.3536017867        8.4955497045        1.0595700415
HB3         4.5298998683        8.4982098215        2.3668218253
CG          4.2394017324       10.3969352170        1.4194964009
CD1         4.8070441913       11.1032132084        2.4994705889
HD1         5.2922068145       10.5653372418        3.3052369684
CE1         4.7523310887       12.5108063021        2.5318578540
HE1         5.1896891014       13.0513658217        3.3602125017
CZ          4.1270694634       13.2166773618        1.4807405741
OH          4.0708615643       14.5747924540        1.5047675914
HH          4.4945782780       14.9317212248        2.2960546770
CE2         3.5573816031       12.5082936300        0.4010580007
HE2         3.0794177537       13.0541361382       -0.4008337987
CD2         3.6145034965       11.1009466021        0.3711729381
HD2         3.1778736055       10.5605783228       -0.4603669244
C           6.7983940892        8.8600633123        0.7944545412
O           7.4878094922        8.2336929439        1.6051805405
N           7.2125010887       10.0035068295        0.2427458106
H           6.5941644378       10.4809463550       -0.3993714771
CA          8.4969313660       10.6510008044        0.5290358701
HA2         8.5515255126       10.8878096808        1.5921829521
HA3         9.3116093821        9.9659799676        0.2920580309
C           8.7074204812       11.9454510812       -0.2655976805
O           7.8947885120       12.3036057974       -1.1240075221
N           9.8028347862       12.6527689683        0.0174892939
H          10.4288811161       12.3039362101        0.7314565361
CA         10.1733169805       13.9153618612       -0.6331283748
HA2        10.2825409105       13.7520262714       -1.7058384892
HA3         9.3796960799       14.6478391558       -0.4815763729
C          11.4836839676       14.5075577743       -0.1002920763
O          12.1210310206       13.9360812397        0.7901298444
N          11.8873362807       15.6570624436       -0.6462508798
H          11.3043902987       16.0738550517       -1.3593313760
CA         13.1023793730       16.3930859920       -0.2706585500
HA         13.3429798689       16.1776372721        0.7719222429
CB         14.2741712659       15.9144590606       -1.1464882334
HB2        14.4102678381       14.8420847345       -0.9975572941
HB3        14.0163429155       16.0670484669       -2.1960216192
CG         15.5938034900       16.6077877299       -0.8559956166
CD1        16.0550543084       17.6363979188       -1.7027745698
HD1        15.4827494237       17.9178413107       -2.5785413065
CE1        17.2566391915       18.3094458152       -1.4068957318
HE1        17.6140504607       19.1011364435       -2.0507497301
CZ         18.0025941639       17.9542767125       -0.2627737011
OH         19.1634783864       18.6041312386        0.0169567629
HH         19.5737538816       18.2628000498        0.8218816416
CE2        17.5431527363       16.9198898801        0.5820127836
HE2        18.1145376083       16.6446830253        1.4580132516
CD2        16.3394210166       16.2501891578        0.2848032615
HD2        15.9862574563       15.4603750991        0.9372369197
C          12.9045951753       17.9150170316       -0.3990976506
O          12.1316901557       18.3794193857       -1.2431460415
N          13.6200533369       18.6913462815        0.4203511531
H          14.2524319350       18.2411250327        1.0678627392
CA         13.6817638256       20.1564371166        0.3608482770
HA         13.5306829767       20.4749628207       -0.6719713791
CB         12.5562648416       20.7532721892        1.2222330119
HB2        11.6017703129       20.3426840928        0.8890769652
HB3        12.6995032459       20.4428530066        2.2586927104
CG         12.4640363216       22.2674445520        1.1608275565
CD1        12.9485902820       23.0530938061        2.2262459582
HD1        13.3795539458       22.5777817788        3.0993252546
CE1        12.8791583567       24.4588363797        2.1579926269
HE1        13.2524356116       25.0602607866        2.9756904333
CZ         12.3230229124       25.0832687563        1.0200560673
OH         12.2532436548       26.4390089753        0.9466318753
HH         12.6178943290       26.8545514397        1.7388122126
CE2        11.8376307451       24.2955318551       -0.0457663903
HE2        11.4120000999       24.7790727399       -0.9144071650
CD2        11.9084824656       22.8902798887        0.0255593903
HD2        11.5339707449       22.2886827622       -0.7941940468
C          15.0619767105       20.6663422788        0.8166650603
O          15.6805290171       20.0809563719        1.7116464156
N          15.5401594525       21.7634171993        0.2162920117
H          14.9618425629       22.2022650761       -0.4870715606
CH3        16.8313060476       22.3819739118        0.5167804650
HH31       17.6373707751       21.6626697326        0.3574174268
HH32       16.9939113261       23.2441268749       -0.1325855868
HH33       16.8543106300       22.7140757928        1.5565773658
         110
Energy of minimum      5=    -152.9588522     first found at step        0 after                  645 function calls
HH31        2.0170504753        1.1835385087        0.0324197561
CH3         2.1268371475        2.1523315474       -0.4527170395
HH32        1.3282143173        2.8167893208       -0.1262913310
HH33        2.0765306658        2.0272855174       -1.5333195116
C           3.4612672571        2.7554869189       -0.0817640674
O           4.2252720408        2.1490709355        0.6674653543
N           3.7396678007        3.9478910928       -0.6048947236
H           3.0420579005        4.3751808487       -1.1978620666
CA          4.9704689301        4.7128263781       -0.3646777656
HA          5.3738145521        4.4419983024        0.6125628051
CB          6.0121032946        4.3452657609       -1.4364073893