         110
Energy of minimum      1=    -153.3189191     first found at step       63 after                44070 function calls
HH31       -0.2478596116        2.4321876384        0.9647704968
CH3         0.2510423193        1.9792545428        0.1093141350
HH32        0.2384344668        0.8950736793        0.2111193148
HH33       -0.2648040039        2.2660209012       -0.8058567487
C           1.6801948422        2.4651510219        0.0497875881
O           2.6083669066        1.6610443356        0.1184376643
N           1.8556484861        3.7789840189       -0.0768606569
H           1.0311288174        4.3620206004       -0.1097249877
CA          3.1564170217        4.4581721320       -0.1416133017
HA          3.8975219749        3.8628222114        0.3944812047
CB          3.5982271189        4.5698191544       -1.6126576201
HB2         2.8145967575        5.0761898356       -2.1790673221
HB3         3.7018945401        3.5656484667       -2.0267714095
CG          4.9082834718        5.3122418832       -1.8158989696
CD1         4.9004347626        6.6616001366       -2.2253950595
HD1         3.9616217665        7.1626610863       -2.4286146828
CE1         6.1122498164        7.3675498646       -2.3573717692
HE1         6.1119762553        8.4034940291       -2.6667841906
CZ          7.3380291793        6.7245944707       -2.0830255360
OH          8.5048728069        7.4103114135       -2.2109321556
HH          9.2658498803        6.8531554058       -2.0035264206
CE2         7.3463412304        5.3706827660       -1.6810582858
HE2         8.2848442511        4.8757311901       -1.4718468879
CD2         6.1320675587        4.6681340493       -1.5462321155
HD2         6.1406429672        3.6319371016       -1.2294330755
C           3.1060646977        5.8476197670        0.5199852153
O           2.0697738152        6.5192428392        0.4988687162
N           4.2383505120        6.2936092678        1.0720021582
H           5.0494423593        5.6913400753        1.0376668550
CA          4.4653407178        7.6617901383        1.5491344853
HA          3.8360223696        8.3451675237        0.9763337536
CB          4.0713138380        7.7696132871        3.0309425399
HB2         3.0302338007        7.4626714832        3.1428546495
HB3         4.6805869965        7.0759180284        3.6129043357
CG          4.2197334501        9.1675618988        3.6041339557
CD1         3.2540739678       10.1513794936        3.3123801449
HD1         2.3967045419        9.9031000237        2.6979554721
CE1         3.4007135822       11.4590960495        3.8162221065
HE1         2.6588435269       12.2132035032        3.5910912084
CZ          4.5185910057       11.7860606283        4.6147770293
OH          4.6681508071       13.0460814829        5.1028184266
HH          3.9400079157       13.6190801660        4.8296801248
CE2         5.4847626397       10.7997006968        4.9071528863
HE2         6.3390742308       11.0559003004        5.5186087283
CD2         5.3349147327        9.4929771220        4.4024557785
HD2         6.0823388914        8.7409489786        4.6252878736
C           5.9325577740        8.0741529397        1.3322175358
O           6.8440878874        7.2581965185        1.5010378756
N           6.1663480081        9.3390037565        0.9737588848
H           5.3798055890        9.9659916082        0.8713199130
CA          7.4973261500        9.8993701926        0.7183679073
HA2         8.0909201078        9.8510541883        1.6318576356
HA3         8.0008624279        9.3058438247       -0.0454436868
C           7.4555217417       11.3571702965        0.2454642956
O           6.3799604040       11.9419402154        0.0811161116
N           8.6299885821       11.9502011122        0.0235087751
H           9.4747745149       11.4150509969        0.1761527671
CA          8.7935599043       13.3360862160       -0.4315597866
HA2         8.2888098369       13.4649255025       -1.3896566244
HA3         8.3300616637       14.0113208830        0.2885288127
C          10.2613217865       13.7465309184       -0.6014538990
O          11.1738185161       12.9502960623       -0.3585454227
N          10.4900915281       14.9934959302       -1.0199429363
H           9.6924454210       15.5928251003       -1.1830087755
CA         11.8178335115       15.5857792269       -1.2334146751
HA         12.5372696562       15.0969647526       -0.5740746850
CB         12.2511950760       15.3406465425       -2.6893521013
HB2        12.2538087758       14.2661395402       -2.8795155934
HB3        11.5128904706       15.7870533362       -3.3578519964
CG         13.6256506387       15.8868163755       -3.0335886399
CD1        14.7804740468       15.2043162245       -2.6029362857
HD1        14.6882023164       14.2795621155       -2.0458197251
CE1        16.0573382818       15.7224376181       -2.8964242462
HE1        16.9475316294       15.2023829808       -2.5702043012
CZ         16.1829172832       16.9274309175       -3.6207281167
OH         17.4172939745       17.4197242049       -3.9077548822
HH         17.3616299418       18.2402963942       -4.4138387164
CE2        15.0252481843       17.6111710585       -4.0524769542
HE2        15.1187465917       18.5336580948       -4.6090602446
CD2        13.7497211077       17.0897710885       -3.7584858897
HD2        12.8637530925       17.6190611042       -4.0883423020
C          11.8248941682       17.0892857991       -0.9005458682
O          10.8073683285       17.7716387762       -1.0573711371
N          12.9737735139       17.6096419388       -0.4584338120
H          13.7749293109       16.9977486742       -0.3833246778
CA         13.2095937378       19.0327945903       -0.1862805934
HA         12.5920341814       19.6286945902       -0.8604592202
CB         12.7965664115       19.3516836707        1.2607709028
HB2        11.7613246032       19.0403153177        1.4088961051
HB3        13.4130939167       18.7643108653        1.9434341317
CG         12.9016104082       20.8209370346        1.6287765036
CD1        13.9697599445       21.2797294380        2.4261225120
HD1        14.7150824334       20.5822331051        2.7893019608
CE1        14.0754126626       22.6471507924        2.7495063770
HE1        14.8961912829       22.9977906130        3.3602838773
CZ         13.1094868133       23.5611210695        2.2743977072
OH         13.2051144387       24.8820126969        2.5816162614
HH         13.9791108512       25.0613753978        3.1311193929
CE2        12.0400583917       23.1004187905        1.4767894849
HE2        11.3026914732       23.8046758322        1.1164780075
CD2        11.9372302785       21.7326201977        1.1552672240
HD2        11.1141776868       21.3823649658        0.5436366354
C          14.6823475681       19.4076513959       -0.4384236834
O          15.5824213015       18.5895148620       -0.2225090454
N          14.9334610223       20.6470255224       -0.8785423871
H          14.1452349810       21.2673730084       -1.0041729771
CH3        16.2670798158       21.1784122368       -1.1598032042
HH31       16.7728848031       20.5523460003       -1.8975709995
HH32       16.1905512688       22.1942870029       -1.5517577410
HH33       16.8625790203       21.1973513821       -0.2448936727
         110
Energy of minimum      2=    -153.3086854     first found at step        1 after                 1357 function calls
HH31        0.0279329463        1.8768408728        0.7327671346
CH3         0.6054104037        1.4262458382       -0.0730499904
HH32        0.6449027193        0.3467755711        0.0653531994
HH33        0.1356439996        1.6548580406       -1.0285217446
C           2.0069907705        1.9896988454       -0.0586031908
O           2.9708748121        1.2416268668        0.0967053607
N           2.1189435801        3.3067346627       -0.2194249667
H           1.2679720329        3.8411435266       -0.3247825617
CA          3.3824775046        4.0556925521       -0.2250614616
HA          4.1181626942        3.5199805723        0.3773129324
CB          3.9126511694        4.1461478670       -1.6681000015
HB2         3.1414155807        4.5898047235       -2.3002964243
HB3         4.0972516147        3.1369835737       -2.0397265595
CG          5.1911220837        4.9543121354       -1.8134965910
CD1         5.1370709977        6.2877065754       -2.2691890802
HD1         4.1877868218        6.7287078903       -2.5486683145
CE1         6.3150068584        7.0561031594       -2.3486520340
HE1         6.2789171875        8.0802525761       -2.6932210511
CZ          7.5532727973        6.4918010741       -1.9752239384
OH          8.6872394737        7.2375794150       -2.0528371286
HH          9.4621064493        6.7306777805       -1.7786919678
CE2         7.6085135097        5.1536796525       -1.5267837500
HE2         8.5567746543        4.7189270523       -1.2416063759
CD2         6.4277589783        4.3886285448       -1.4447511701
HD2         6.4716559059        3.3649056666       -1.0923251818
C           3.2138836668        5.4600418484        0.3833596990
O           2.1463546529        6.0713179897        0.2731743081
N           4.2818984584        5.9860021905        0.9903268272
H           5.1248479932        5.4294613438        1.0286345380
CA          4.4028191669        7.3789736607        1.4331619344
HA          3.7758063759        8.0076891487        0.7985608562
CB          3.9082391117        7.5102737466        2.8825405062
HB2         2.8806173248        7.1478303618        2.9392549574
HB3         4.5157520928        6.8710410296        3.5255160382
CG          3.9418151597        8.9315473675        3.4151615921
CD1         2.9417741734        9.8475147526        3.0329931940
HD1         2.1391976926        9.5317804096        2.3770338679
CE1         2.9839441563       11.1755127988        3.5014447483
HE1         2.2193540310       11.8831016054        3.2113397401
CZ          4.0288965312       11.5921149401        4.3538448068
OH          4.0664798112       12.8749923585        4.8022130225
HH          4.8290610686       13.0263565925        5.3755030842
CE2         5.0307758690       10.6737407764        4.7371377470
HE2         5.8327948109       10.9907067685        5.3897988925
CD2         4.9853354952        9.3460435561        4.2675012276
HD2         5.7585681555        8.6454833059        4.5595957357
C           5.8565202173        7.8662065447        1.2950453644
O           6.7978879184        7.1095096371        1.5527452111
N           6.0444334952        9.1290972427        0.9041753656
H           5.2335144822        9.7065477028        0.7274786493
CA          7.3570647028        9.7542069327        0.7117669734
HA2         7.8891535067        9.7772052939        1.6633380941
HA3         7.9428674096        9.1600487934        0.0096019454
C           7.2679751594       11.1867489819        0.1728484866
O           6.1754659782       11.7034725880       -0.0824824668
N           8.4210180952       11.8346314656       -0.0033964164
H           9.2816595621       11.3540854874        0.2240230414
CA          8.5393257266       13.2074314739       -0.5093136459
HA2         8.0896727077       13.2682181189       -1.5010003998
HA3         7.9964260035       13.8851336772        0.1504416077
C           9.9910953592       13.6913930724       -0.6083224410
O          10.9273016169       12.9582004877       -0.2742686537
N          10.1794986795       14.9303095533       -1.0687360149
H           9.3631319917       15.4768583398       -1.3071839387
CA         11.4848560866       15.5859799137       -1.2281409546
HA         12.1861428565       15.1663368663       -0.5047095629
CB         12.0215152795       15.3038598726       -2.6423739450
HB2        12.0929686693       14.2240709524       -2.7826758490
HB3        11.3042405335       15.6797554558       -3.3741420312
CG         13.3841084102       15.9105870281       -2.9272439866
CD1        14.5439770382       15.3122863267       -2.3965593776
HD1        14.4658298323       14.4082820087       -1.8043333846
CE1        15.8075938532       15.8877554082       -2.6354635299
HE1        16.7017192064       15.4323467216       -2.2323963682
CZ         15.9146474218       17.0660752996       -3.4052017880
OH         17.1368807609       17.6136870326       -3.6390600269
HH         17.0698922520       18.4076889611       -4.1846162553
CE2        14.7519464059       17.6654076544       -3.9372094519
HE2        14.8314031052       18.5672385041       -4.5287305371
CD2        13.4898039532       17.0867642616       -3.6975720371
HD2        12.5996311585       17.5514653506       -4.1044358894
C          11.3913524324       17.1003052319       -0.9645831389
O          10.3510379570       17.7177088747       -1.2138113114
N          12.4809516139       17.7020676405       -0.4779481454
H          13.3070492722       17.1394473099       -0.3265338832
CA         12.6235229122       19.1463992699       -0.2574443662
HA         12.0190084577       19.6778769695       -0.9943892397
CB         12.1038484951       19.5029160314        1.1457921552
HB2        11.0792589020       19.1409903487        1.2450026918
HB3        12.7063523754       18.9802533539        1.8907449553
CG         12.1076099824       20.9900266253        1.4518237604
CD1        13.0976710163       21.5409728123        2.2905325271
HD1        13.8545274866       20.9020782926        2.7297223258
CE1        13.1102372742       22.9246421427        2.5567698375
HE1        13.8712338593       23.3460186782        3.1994213864
CZ         12.1291141390       23.7624538725        1.9827037811
OH         12.1351694065       25.0984637057        2.2343454039
HH         12.8624656289       25.3437817851        2.8209067382
CE2        11.1378960776       23.2095198811        1.1437441920
HE2        10.3884319946       23.8557238578        0.7075827557
CD2        11.1280484453       21.8257108120        0.8795500689
HD2        10.3648213200       21.4045575944        0.2358877696
C          14.0873381676       19.5915827888       -0.4367539129
O          15.0140371943       18.8347149702       -0.1293784074
N          14.2997624236       20.8231916927       -0.9171971067
H          13.4893051056       21.3928132515       -1.1187034041
CH3        15.6184687651       21.4155396170       -1.1411526390
HH31       16.2021939134       20.7878032497       -1.8174003542
HH32       15.5131530822       22.4080023329       -1.5832081040
HH33       16.1532707412       21.5064600591       -0.1936519272
         110
Energy of minimum      3=    -152.9588522     first found at step        0 after                  645 function calls
HH31       -0.2594601642        2.3812581783        0.9794675527
CH3         0.3358313080        1.7505490960        0.3209157954
HH32        0.3025154731        0.7206474954        0.6732842449
HH33       -0.0631058179        1.8032757158       -0.6909824341
C           1.7654214525        2.2387876779        0.3197614815
O           2.6721156726        1.4930439052        0.6865859600
N           1.9651709380        3.4894463504       -0.0912777974
H           1.1552444457        4.0309879891       -0.3588560245
CA          3.2693727345        4.1619676794       -0.1581682289
HA          3.9356720648        3.7230839309        0.5864531039
CB          3.8846271845        3.9357702780       -1.5506494850
HB2         3.1875247901        4.2994145190       -2.3076793136
HB3         4.0081490758        2.8635242557       -1.7108744347
CG          5.2310154950        4.6081820810       -1.7567424776
CD1         5.3185921561        5.8068202162       -2.4942674047
HD1         4.4283923697        6.2393924018       -2.9351248159
CE1         6.5615512835        6.4502485674       -2.6560294528
HE1         6.6266597380        7.3688594576       -3.2229820552
CZ          7.7235182306        5.8938796143       -2.0780065661
OH          8.9276868308        6.5047918045       -2.2364906341
HH          8.8518025521        7.3020437995       -2.7758215487
CE2         7.6349186888        4.6934984190       -1.3406630361
HE2         8.5285503905        4.2715931369       -0.9016906439
CD2         6.3903650266        4.0526878392       -1.1803039790
HD2         6.3263904152        3.1322433463       -0.6122391676
C           3.1479399281        5.6653079932        0.1511493050
O           2.1256047662        6.2895798376       -0.1499268266
N           4.2012093443        6.2517436262        0.7279002474
H           5.0125701757        5.6815684355        0.9240435586
CA          4.3424537304        7.6921582462        0.9688957722
HA          3.7991610051        8.2358138270        0.1940376381
CB          3.7295408815        8.0496401160        2.3334087372
HB2         2.6876811263        7.7258472264        2.3485332590
HB3         4.2540057628        7.4963365553        3.1143949864
CG          3.7696111647        9.5321577571        2.6585842894
CD1         2.8572443555       10.4103837733        2.0409939432
HD1         2.1144379878       10.0248144569        1.3527520454
CE1         2.9097232726       11.7911802681        2.3156373618
HE1         2.2123581874       12.4701723075        1.8443885975
CZ          3.8772195651       12.2984575277        3.2093303134
OH          3.9251177582       13.6317935299        3.4703547648
HH          4.6290194025       13.8437929962        4.0969705976
CE2         4.7908072714       11.4179120609        3.8290482449
HE2         5.5331557725       11.8042219960        4.5141332222
CD2         4.7351673176       10.0373183264        3.5529585064
HD2         5.4411659469        9.3654699279        4.0263912291
C           5.8204011502        8.1184766394        0.8988248664
O           6.7122240344        7.3578998124        1.2875198651
N           6.0832930247        9.3390800131        0.4251738779
H           5.3084390765        9.9233554619        0.1408736543
CA          7.4248914090        9.9221488043        0.3197479884
HA2         7.8755816627        9.9697453787        1.3116925646
HA3         8.0508928996        9.2860522393       -0.3068420801
C           7.4208037333       11.3345749350       -0.2772320824
O           6.3791208798       11.8397310320       -0.7076131027
N           8.5894199951       11.9778931083       -0.3062998542
H           9.4060374800       11.5077536525        0.0617680216
CA          8.7839853740       13.3332935340       -0.8351960471
HA2         8.4874613328       13.3590912356       -1.8843494933
HA3         8.1496521816       14.0308532069       -0.2871471641
C          10.2349283070       13.8190248859       -0.7327552623
O          11.1107851741       13.0988254511       -0.2430365661
N          10.4904910578       15.0447845816       -1.1959910481
H           9.7188467841       15.5815123385       -1.5681677411
CA         11.8056389353       15.7000623907       -1.1794737937
HA         12.3918701950       15.3036794600       -0.3485275997
CB         12.5453115673       15.3794399658       -2.4900955276
HB2        12.6358123480       14.2963304102       -2.5871360269
HB3        11.9444704062       15.7317983284       -3.3303921683
CG         13.9355658122       15.9824286591       -2.5877123097
CD1        15.0036909842       15.4035071691       -1.8743790178
HD1        14.8380561321       14.5165382363       -1.2744501442
CE1        16.2892319132       15.9762267437       -1.9402886876
HE1        17.1135303250       15.5355822088       -1.3965184991
CZ         16.5099437395       17.1324237563       -2.7193199556
OH         17.7537865330       17.6772998989       -2.7855563140
HH         17.7688928461       18.4551540061       -3.3576344227
CE2        15.4392138708       17.7123293751       -3.4344088113
HE2        15.6060417755       18.5971524254       -4.0333800792
CD2        14.1550197294       17.1364628111       -3.3674659112
HD2        13.3352010209       17.5863041207       -3.9146705490
C          11.6754760101       17.2209778425       -0.9763393069
O          10.6839919902       17.8274414513       -1.3943314085
N          12.6816193340       17.8401265076       -0.3514488937
H          13.4757624260       17.2848962790       -0.0634170555
CA         12.7912157577       19.2906474532       -0.1539111970
HA         12.3028006839       19.7987865008       -0.9871214713
CB         12.0699984368       19.6853127725        1.1462138281
HB2        11.0417043922       19.3228532426        1.1031898022
HB3        12.5552543805       19.1862123005        1.9867894398
CG         12.0296849550       21.1805613348        1.4065476100
CD1        12.8852483554       21.7586321009        2.3662562199
HD1        13.5682824607       21.1351443227        2.9307320072
CE1        12.8594439863       23.1493760452        2.5915258143
HE1        13.5173569091       23.5915451716        3.3272650276
CZ         11.9747277699       23.9670777073        1.8548278439
OH         11.9446034756       25.3097426847        2.0660750699
HH         12.5773378805       25.5742100417        2.7464420195
CE2        11.1180554411       23.3870088678        0.8947575450
HE2        10.4418919666       24.0179166204        0.3341586995
CD2        11.1462461395       21.9961930025        0.6719136001
HD2        10.4862775130       21.5542120206       -0.0651618810
C          14.2658249059       19.7355385611       -0.1275121924
O          15.1362376811       18.9909112351        0.3351008938
N          14.5480026912       20.9536667205       -0.6064170066
H          13.7767387488       21.5145428878       -0.9418039851
CH3        15.8858257065       21.5438901912       -0.6498328599
HH31       16.5626186435       20.8991330652       -1.2140478473
HH32       15.8478782385       22.5229862584       -1.1308917411
HH33       16.2746932078       21.6636026868        0.3633247937
         110
Energy of minimum      4=    -152.0107391     first found at step       87 after                60283 function calls
HH31       -0.5261733472        2.5155996426        1.5175859630
CH3         0.2260542833        1.7926501039        1.2055702116
HH32        0.1334305658        0.8877578832        1.8043704500
HH33        0.0829308313        1.5504990739        0.1535495948
C           1.6010498880        2.3880178152        1.3980028606
O           2.4097494965        1.8429681239        2.1474784949
N           1.8639455488        3.5051519754        0.7228009544
H           1.1300295649        3.8873487125        0.1430259476
CA          3.1287676116        4.2502167797        0.7757563263
HA          3.6053267394        4.0758606628        1.7419479092
CB          4.0683016035        3.7314899727       -0.3273790128
HB2         3.5666791838        3.8274764426       -1.2919745135
HB3         4.2530229711        2.6689560896       -0.1614244514
CG          5.4077337302        4.4447230886       -0.3951765221
CD1         5.6421520216        5.4186262646       -1.3876018385
HD1         4.8749984810        5.6445801537       -2.1185930856
CE1         6.8712339901        6.1061645470       -1.4296029293
HE1         7.0493559740        6.8519202431       -2.1922544714
CZ          7.8717615995        5.8198408605       -0.4752504428
OH          9.0632191330        6.4734909875       -0.5142562947
HH          9.1008774915        7.0970106302       -1.2504883860
CE2         7.6364369631        4.8441261207        0.5172423728
HE2         8.4071144859        4.6282634808        1.2443856376
CD2         6.4060871360        4.1586073501        0.5568605204
HD2         6.2288392617        3.4114628103        1.3212990124
C           2.8995275987        5.7660814652        0.6341364419
O           1.9657363278        6.2007623671       -0.0474914153
N           3.7671342085        6.5702639266        1.2558066451
H           4.5204036138        6.1424092722        1.7767714186
CA          3.8108035459        8.0311704582        1.1267153765
HA          3.4583844167        8.3094802332        0.1319904616
CB          2.8771023981        8.6694894066        2.1688764565
HB2         1.8707887353        8.2700890807        2.0333971613
HB3         3.2100289250        8.3818379483        3.1676578508
CG          2.8012059983       10.1835165048        2.0842361854
CD1         2.0445932661       10.7916557586        1.0630526489
HD1         1.5002116971       10.1796867430        0.3536561261
CE1         1.9954665776       12.1959343011        0.9612230697
HE1         1.4167685642       12.6684066196        0.1793656137
CZ          2.7050568673       12.9972104178        1.8812794643
OH          2.6559339483       14.3519120335        1.7784091574
HH          3.1817218201       14.7776189050        2.4678941816
CE2         3.4623927897       12.3874874324        2.9053562751
HE2         4.0070744906       12.9993265319        3.6114956691
CD2         3.5087979732       10.9827576889        3.0050610539
HD2         4.0951663807       10.5184810183        3.7890072730
C           5.2509146798        8.5535350021        1.2822811139
O           6.0402366281        7.9983911830        2.0527964997
N           5.5909833436        9.6313467269        0.5709426768
H           4.8940901315       10.0536234785       -0.0279111835
CA          6.9036175674       10.2836524609        0.6203410858
HA2         7.0992624865       10.6220440738        1.6384553113
HA3         7.6779894082        9.5662443178        0.3468643989
C           7.0100601447       11.4910944805       -0.3188462997
O           6.0913929330       11.7768921538       -1.0933473707
N           8.1354429496       12.2050233242       -0.2543183984
H           8.8498958710       11.9175821940        0.4016666034
CA          8.4190653436       13.3923898973       -1.0693149780
HA2         8.3762258859       13.1251939154       -2.1258114116
HA3         7.6587543934       14.1512957796       -0.8813564593
C           9.7944485311       14.0070682442       -0.7827887730
O          10.5401130994       13.5196879845        0.0728162926
N          10.1318116871       15.0792825232       -1.5023753960
H           9.4607694558       15.4350743324       -2.1692723308
CA         11.3918552612       15.8263266282       -1.3763129654
HA         11.7522456463       15.7367952440       -0.3499381528
CB         12.4572787018       15.2125327036       -2.3055259212
HB2        13.4167151897       15.6882531682       -2.0969910854
HB3        12.5742989632       14.1569978675       -2.0547783814
CG         12.1715096586       15.3317234745       -3.7946660376
CD1        12.6710171773       16.4292371989       -4.5254606262
HD1        13.2612280505       17.1898029592       -4.0294042231
CE1        12.4052172859       16.5410066917       -5.9044747028
HE1        12.7842141972       17.3819441807       -6.4689549973
CZ         11.6410134726       15.5521166549       -6.5600811798
OH         11.3870210642       15.6642336503       -7.8909773171
HH         10.8572748702       14.9233035135       -8.2127765617
CE2        11.1468442812       14.4486709464       -5.8305987175
HE2        10.5642825346       13.6874569304       -6.3315014132
CD2        11.4148140189       14.3399954325       -4.4514772084
HD2        11.0377791395       13.4904333541       -3.8954076623
C          11.1964076214       17.3287108022       -1.6581596929
O          10.1703070747       17.7418321481       -2.2084255188
N          12.1834091332       18.1488040368       -1.2846794703
H          13.0014456695       17.7441476685       -0.8501847905
CA         12.2048661666       19.6018742818       -1.5026706104
HA         11.5904252419       19.8393152986       -2.3727710526
CB         11.5957695299       20.3030870497       -0.2759706165
HB2        10.6072452068       19.8818513792       -0.0856241237
HB3        12.2137127727       20.0882526312        0.5975978444
CG         11.4413712406       21.8063305620       -0.4241852589
CD1        12.3158162358       22.6813335474        0.2518101108
HD1        13.0955932691       22.2840091632        0.8905558733
CE1        12.1830484495       24.0754428234        0.0955317091
HE1        12.8555686254       24.7453709544        0.6138006950
CZ         11.1717809656       24.5986594321       -0.7396961510
OH         11.0379632668       25.9425010184       -0.8959817406
HH         11.6970238210       26.4251206944       -0.3803118081
CE2        10.2963342236       23.7215947269       -1.4152707127
HE2         9.5229296334       24.1278386684       -2.0527240381
CD2        10.4315598647       22.3282537523       -1.2568511690
HD2         9.7562883146       21.6581939553       -1.7757626382
C          13.6327207514       20.1051358733       -1.7915610991
O          14.6141366191       19.4847434846       -1.3686505934
N          13.7556384337       21.2285133836       -2.5095437949
H          12.9052583032       21.6943759058       -2.7962312675
CH3        15.0276660330       21.8526439370       -2.8737085908
HH31       15.6317139370       21.1589164270       -3.4619721131
HH32       14.8476237702       22.7525524136       -3.4647130619
HH33       15.5812458894       22.1272530054       -1.9735469208
         110
Energy of minimum      5=    -151.9829803     first found at step        2 after                 2086 function calls
HH31       -0.1124055345        2.3372973129        0.4109827420
CH3         0.5595228319        1.8332320078       -0.2820448341
HH32        0.5897030978        0.7690784931       -0.0526162605
HH33        0.2047029189        1.9769790067       -1.3015101147
C           1.9456477399        2.4189246329       -0.1488632986
O           2.8894223552        1.7015616349        0.1789807408
N           2.0668806938        3.7205383495       -0.4020117160
H           1.2307548005        4.2308051058       -0.6497324494
CA          3.3170412495        4.4872593965       -0.3199799514
HA          3.9797486324        4.0136011384        0.4063401376
CB          4.0139160981        4.4705936326       -1.6932104371