         110
Energy of minimum      1=    -153.4255761     first found at step       73 after                50829 function calls
HH31        4.0112389761       -0.2821144659        3.2426480220
CH3         3.9764653880       -0.4140803383        2.1622623716
HH32        3.0034498931       -0.0984091050        1.7888151589
HH33        4.1390247100       -1.4626019217        1.9170112207
C           5.0542491697        0.4283275906        1.5212893043
O           5.9339430483       -0.1044542446        0.8466878222
N           4.9857497018        1.7411952082        1.7326348687
H           4.2342433323        2.0848423827        2.3140043512
CA          5.9356100277        2.7340845301        1.2135743098
HA          6.9080209793        2.2589925307        1.0729349485
CB          5.4429348822        3.2413286846       -0.1544902739
HB2         5.3967890297        2.3992781569       -0.8468902279
HB3         4.4280387829        3.6272201995       -0.0432172332
CG          6.3145996018        4.3233470903       -0.7694648448
CD1         7.5326518085        3.9793386231       -1.3885356390
HD1         7.8300864350        2.9397462537       -1.4586785640
CE1         8.3695764962        4.9854054384       -1.9116034162
HE1         9.3051413659        4.7201705524       -2.3847882229
CZ          7.9901007735        6.3421641111       -1.8119886380
OH          8.7941313815        7.3186343258       -2.3101156675
HH          9.5906801220        6.9488046679       -2.7116870534
CE2         6.7679090283        6.6854854958       -1.1958994325
HE2         6.4814520788        7.7255473063       -1.1243025607
CD2         5.9317151415        5.6773951845       -0.6774261793
HD2         4.9986525804        5.9471533159       -0.1974718322
C           6.1256773023        3.9060868994        2.1939223375
O           5.1991515805        4.2762301768        2.9219068944
N           7.3154575781        4.5143570037        2.1825309216
H           8.0197207859        4.1620106983        1.5487845919
CA          7.6281322089        5.7742266103        2.8652151485
HA          6.7163685343        6.3686201371        2.9460240035
CB          8.1432463834        5.4846588299        4.2841425627
HB2         7.3929961701        4.9010651325        4.8199889494
HB3         9.0454883893        4.8741855664        4.2178871414
CG          8.4427885121        6.7332988453        5.0940831215
CD1         9.7715467225        7.1782697992        5.2477937817
HD1        10.5861655439        6.6198904732        4.8021466617
CE1        10.0448851411        8.3536850842        5.9751783418
HE1        11.0646828823        8.6946593242        6.0910128977
CZ          8.9859185278        9.0883437823        6.5521993273
OH          9.2417168611       10.2238284601        7.2546686940
HH         10.1881031903       10.4151351967        7.2839611443
CE2         7.6560945876        8.6410648328        6.3986460356
HE2         6.8491606814        9.2076212143        6.8428447356
CD2         7.3860585565        7.4658332682        5.6701439414
HD2         6.3637130986        7.1266027543        5.5525328346
C           8.6543351682        6.5877259065        2.0559899068
O           9.5808507344        6.0202016402        1.4689142914
N           8.5034732214        7.9142709343        2.0335630762
H           7.7367833865        8.3227574393        2.5508503072
CA          9.3800001272        8.8394371914        1.3079236351
HA2        10.3886093743        8.7779672554        1.7178793731
HA3         9.4225201878        8.5507301035        0.2571787286
C           8.9135724622       10.2977201144        1.3879496582
O           7.8808229396       10.6029006937        1.9929841745
N           9.6748467696       11.2059932530        0.7749034100
H          10.5079219213       10.8900537123        0.2958267621
CA          9.3931835696       12.6461262031        0.7400336031
HA2         9.3541336744       13.0328053361        1.7589798132
HA3         8.4202018306       12.8139983912        0.2769450681
C          10.4424048451       13.4478502225       -0.0397333739
O          11.4116500884       12.8854984960       -0.5593285993
N          10.2494104006       14.7663179315       -0.1219991715
H           9.4412031597       15.1572037065        0.3427959943
CA         11.1396221572       15.7118838174       -0.8094245722
HA         12.1564839123       15.3153733684       -0.8022216751
CB         10.6877161697       15.8581733831       -2.2735452690
HB2        10.7211269969       14.8781311844       -2.7521796711
HB3         9.6492254390       16.1935960714       -2.2910890149
CG         11.5311482947       16.8186923029       -3.0936342118
CD1        12.8008519933       16.4199667995       -3.5563596833
HD1        13.1618142102       15.4187087890       -3.3529185813
CE1        13.6052391746       17.3218795376       -4.2811474939
HE1        14.5797201866       17.0147941464       -4.6356625468
CZ         13.1403060996       18.6297248802       -4.5420770481
OH         13.9102736687       19.5049966225       -5.2415486814
HH         14.7516150753       19.1069127224       -5.4992499213
CE2        11.8670674850       19.0269847516       -4.0809309690
HE2        11.5158145338       20.0290146980       -4.2849417632
CD2        11.0642083489       18.1223128426       -3.3588995232
HD2        10.0905037920       18.4347747562       -3.0011620087
C          11.1670463371       17.0797361173       -0.1022332492
O          10.1763561077       17.4906949909        0.5102364591
N          12.2914171486       17.7945437743       -0.2066503762
H          13.0522706477       17.4051673129       -0.7464295286
CA         12.4680110752       19.1711896618        0.2703106124
HA         11.5071363660       19.6866950793        0.2258791846
CB         12.9406389442       19.1510383315        1.7335764731
HB2        12.2304098566       18.5715724993        2.3255491449
HB3        13.9032273138       18.6396835864        1.7889397781
CG         13.0667442972       20.5262718566        2.3643136814
CD1        14.3357088957       21.1140498036        2.5404191164
HD1        15.2287948971       20.5817923673        2.2356600401
CE1        14.4462654482       22.3983282721        3.1090352277
HE1        15.4169873084       22.8549060395        3.2455041198
CZ         13.2867884980       23.0996333081        3.5036448972
OH         13.3983530119       24.3389777825        4.0512752008
HH         12.5329620921       24.7048694746        4.2758174477
CE2        12.0156803350       22.5101002426        3.3274883622
HE2        11.1257082900       23.0451227842        3.6299798444
CD2        11.9085043287       21.2254111234        2.7586111402
HD2        10.9322503775       20.7742953972        2.6254193762
C          13.4592182919       19.9388721858       -0.6246277438
O          14.4241701822       19.3570419362       -1.1312025962
N          13.2346540516       21.2458784501       -0.8089779439
H          12.4399251210       21.6557032920       -0.3376045331
CH3        14.0657337090       22.1264059143       -1.6299343158
HH31       15.0796644022       22.1669327026       -1.2270632490
HH32       14.1073771248       21.7532842868       -2.6554018005
HH33       13.6487261299       23.1351016395       -1.6378721249
         110
Energy of minimum      2=    -153.3083418     first found at step       44 after                30681 function calls
HH31        1.7065774131        1.4374119135        2.1996070564
CH3         2.1226705825        1.7820013743        3.1451188470
HH32        2.0595863798        0.9844908154        3.8840150387
HH33        1.5628320285        2.6483621491        3.4941954122
C           3.5683971647        2.1702852929        2.9421061471
O           4.4548995668        1.6005458890        3.5763669957
N           3.8044884310        3.1391247675        2.0597118627
H           3.0093002607        3.5587019055        1.5987540980
CA          5.1301433549        3.6747589778        1.7226778022
HA          5.7944534978        3.5470337228        2.5790676735
CB          5.7096227033        2.8812107208        0.5384602477
HB2         5.7699576620        1.8278234644        0.8167248437
HB3         5.0226348695        2.9552680315       -0.3064253033
CG          7.0891136360        3.3364638760        0.0954729587
CD1         8.2236347281        2.9758626185        0.8489537625
HD1         8.1147874948        2.3552784694        1.7304594723
CE1         9.5017017786        3.4214795614        0.4577714188
HE1        10.3764904353        3.1469385241        1.0310648487
CZ          9.6486572996        4.2318983864       -0.6885401099
OH         10.8847151650        4.6539715401       -1.0659835782
HH         10.8457358308        5.1885729965       -1.8692415379
CE2         8.5114353757        4.5929280488       -1.4438336318
HE2         8.6214663363        5.2120734808       -2.3236582785
CD2         7.2348386533        4.1445494024       -1.0507985430
HD2         6.3641412949        4.4267347668       -1.6306053442
C           5.0663530814        5.1788939881        1.3997991056
O           4.0576066241        5.6686100972        0.8818657920
N           6.1497507967        5.9079291439        1.6842974714
H           6.9505272974        5.4342440126        2.0797375232
CA          6.3310251084        7.3237724910        1.3428237023
HA          5.7893167871        7.5364837146        0.4195809253
CB          5.7478047994        8.2040074789        2.4629381703
HB2         4.6993231520        7.9406267958        2.6105883932
HB3         6.2733902673        7.9877356543        3.3946529874
CG          5.8255835212        9.6937406347        2.1775745971
CD1         6.7900742833       10.4938897678        2.8238793945
HD1         7.4607351210       10.0552111213        3.5528949422
CE1         6.8939025603       11.8645516359        2.5137989145
HE1         7.6340476728       12.4819338372        3.0034591717
CZ          6.0319643159       12.4392008347        1.5553042075
OH          6.1337239043       13.7604309726        1.2513883879
HH          5.4861579254       14.0045135365        0.5768888929
CE2         5.0621200839       11.6385331471        0.9132298971
HE2         4.3992155169       12.0769964773        0.1797596042
CD2         4.9610780296       10.2685927473        1.2251954148
HD2         4.2195758448        9.6554257902        0.7267403990
C           7.8163816001        7.6536962680        1.1027381653
O           8.7038060648        7.0206592882        1.6828434017
N           8.0889472175        8.6664575062        0.2756728570
H           7.3146919442        9.1608264103       -0.1473169330
CA          9.4308064875        9.1935145194        0.0102928633
HA2         9.9806020254        8.4998715854       -0.6260489040
HA3         9.9713634713        9.2921407372        0.9526382052
C           9.3986771220       10.5632093004       -0.6775015792
O           8.4146372346       10.9203109634       -1.3319837287
N          10.4729406516       11.3384753861       -0.5217970826
H          11.2455389371       10.9813455105        0.0248899898
CA         10.6135046185       12.6980206596       -1.0562959797
HA2         9.7473776798       13.2930079479       -0.7637733790
HA3        10.6492478546       12.6620489125       -2.1454695234
C          11.8780671646       13.4041602282       -0.5529675806
O          12.7425507350       12.7798009006        0.0705718412
N          11.9838080853       14.7097521576       -0.8110946504
H          11.2321731441       15.1573219271       -1.3173621955
CA         13.0879551649       15.5680942596       -0.3613390124
HA         13.5587419073       15.1128182967        0.5117495011
CB         14.1458596415       15.6691056925       -1.4722830926
HB2        14.4965612074       14.6652062500       -1.7172058493
HB3        13.6804667450       16.0802838317       -2.3697838012
CG         15.3480195613       16.5195777527       -1.1021819419
CD1        15.4445449482       17.8486434494       -1.5621502989
HD1        14.6711070042       18.2613857049       -2.1987101608
CE1        16.5431068823       18.6473735588       -1.1884382911
HE1        16.6217465923       19.6680991575       -1.5364290800
CZ         17.5499191546       18.1185074744       -0.3527185307
OH         18.6100784706       18.8918563765        0.0028014092
HH         19.2229541887       18.4097547797        0.5727840870
CE2        17.4546851510       16.7857413288        0.1047996231
HE2        18.2260720737       16.3779697135        0.7437906571
CD2        16.3537743792       15.9897933393       -0.2696098296
HD2        16.2808278817       14.9686840584        0.0856204236
C          12.5850814482       16.9608017017        0.0565341599
O          11.6784735829       17.5141193614       -0.5732938863
N          13.1921816245       17.5283539248        1.1037890750
H          13.9661774110       17.0350811019        1.5259531925
CA         12.8671709214       18.8416562518        1.6752969544
HA         12.3658244998       19.4511685573        0.9216219990
CB         11.9155380515       18.6711436833        2.8737375581
HB2        12.3916468014       18.0289270986        3.6168433046
HB3        11.7686176403       19.6458521542        3.3419393476
CG         10.5477017308       18.1045837092        2.5301218275
CD1         9.5274809425       18.9650783799        2.0779938154
HD1         9.7178036653       20.0268121800        1.9786092154
CE1         8.2591048845       18.4471074321        1.7512693191
HE1         7.4732084924       19.1027740921        1.4023169913
CZ          8.0075242564       17.0638735075        1.8716261468
OH          6.7823156912       16.5735942456        1.5475291525
HH          6.7413422052       15.6096090763        1.6456629981
CE2         9.0275452826       16.2004259465        2.3279804435
HE2         8.8342533151       15.1407393657        2.4228837204
CD2        10.2939087379       16.7231186768        2.6602721621
HD2        11.0752425390       16.0602249311        3.0112411273
C          14.1425863798       19.5857065862        2.1095062581
O          15.1171758996       18.9631115465        2.5436557020
N          14.1298386234       20.9216225540        2.0225164836
H          13.2910172421       21.3607539789        1.6675458255
CH3        15.2459571404       21.7913460257        2.3954790852
HH31       16.1315325515       21.5373363365        1.8091467740
HH32       14.9868467361       22.8351616008        2.2083648236
HH33       15.4782929332       21.6701784583        3.4554939007
         110
Energy of minimum      3=    -153.2478295     first found at step       42 after                29442 function calls
HH31        1.8404520700        1.3724656760        3.4716047756
CH3         1.9418776041        2.1494228798        2.7152843113
HH32        1.3627893209        3.0234135706        3.0096508344
HH33        1.5776507674        1.7775624204        1.7587663859
C           3.3958200473        2.5363033387        2.5793476166
O           4.2478780432        1.9869998873        3.2757949336
N           3.6774415891        3.4810761509        1.6843043275
H           2.9074946895        3.8853463432        1.1699127965
CA          5.0184506093        4.0111895066        1.4040639608
HA          5.6360420532        3.9091852746        2.2980444395
CB          5.6618390233        3.1869566849        0.2750994111
HB2         5.7083589268        2.1417811287        0.5851658876
HB3         5.0212846523        3.2359137571       -0.6072618472
CG          7.0626569398        3.6335345575       -0.1053579103
CD1         8.1553629998        3.2965945039        0.7176666108
HD1         7.9998931345        2.7000903993        1.6087540678
CE1         9.4521526807        3.7345953581        0.3836882640
HE1        10.2951093737        3.4780852631        1.0105217720
CZ          9.6597206757        4.5137134868       -0.7748861543
OH         10.9138477397        4.9284652477       -1.0967507947
HH         10.9175570148        5.4409155693       -1.9152420810
CE2         8.5644134201        4.8510218116       -1.5998797816
HE2         8.7209798119        5.4461342633       -2.4891872163
CD2         7.2689954442        4.4103024741       -1.2639037263
HD2         6.4304680069        4.6742651439       -1.8972389279
C           4.9697399961        5.5056301775        1.0366115893
O           3.9894485130        5.9777672015        0.4520057122
N           6.0351345794        6.2455908327        1.3584494043
H           6.8143836200        5.7854650422        1.8090606448
CA          6.2319722432        7.6521528551        0.9883988113
HA          5.7403718140        7.8377181469        0.0318601889
CB          5.5876430223        8.5608425740        2.0508891885
HB2         4.5330391795        8.2986736931        2.1486602123
HB3         6.0622634659        8.3715269448        3.0152546509
CG          5.6790086609       10.0424108755        1.7293621358
CD1         6.6068239493       10.8622807332        2.4040340926
HD1         7.2373634729       10.4455457524        3.1802034344
CE1         6.7269934572       12.2237716554        2.0612180024
HE1         7.4395023995       12.8560539939        2.5723766379
CZ          5.9181002851       12.7694644484        1.0415243475
OH          6.0361347469       14.0816126997        0.7058651362
HH          5.4253734473       14.3054713532       -0.0087883788
CE2         4.9843706530       11.9493067584        0.3711433738
HE2         4.3620323708       12.3656466993       -0.4092571272
CD2         4.8669713958       10.5885657730        0.7158790338
HD2         4.1538250403        9.9601622676        0.1955051715
C           7.7274772797        7.9805000902        0.8194321399
O           8.5838767017        7.3649580596        1.4616636727
N           8.0418303075        8.9733221519       -0.0169613194
H           7.2901554492        9.4546502335       -0.4924739929
CA          9.3944990042        9.4995962446       -0.2220883068
HA2         9.9783642752        8.7957279967       -0.8153910430
HA3         9.8849467111        9.6181485190        0.7450498802
C           9.3949275841       10.8557387184       -0.9369988110
O           8.4467187454       11.1956778158       -1.6507951464
N          10.4564608706       11.6386781796       -0.7383999838
H          11.1995408508       11.2955410089       -0.1439126589
CA         10.6215730146       12.9880901865       -1.2912492921
HA2         9.7433447174       13.5880819544       -1.0494630886
HA3        10.7065987623       12.9316623974       -2.3768287174
C          11.8624116557       13.7040546337       -0.7445517674
O          12.6912917787       13.0946902261       -0.0607317442
N          11.9879164242       15.0012493638       -1.0343443263
H          11.2651253543       15.4371059104       -1.5903773043
CA         13.0747232230       15.8668918076       -0.5570463531
HA         13.4991476196       15.4356867246        0.3513100264
CB         14.1855269107       15.9273556771       -1.6178836195
HB2        14.5286466198       14.9126625879       -1.8264480228
HB3        13.7707045197       16.3279976500       -2.5444720152
CG         15.3857036617       16.7622110225       -1.2083857677
CD1        15.5312367397       18.0792741055       -1.6897645966
HD1        14.7941999329       18.4944833988       -2.3667515434
CE1        16.6319356468       18.8622154668       -1.2887503840
HE1        16.7422006094       19.8723893255       -1.6587727804
CZ         17.5922588064       18.3269432824       -0.4024864359
OH         18.6603136895       19.0740020454       -0.0156202995
HH         18.6421301722       19.9514161877       -0.4188819055
CE2        17.4462378163       17.0075830972        0.0774573892
HE2        18.1856560106       16.6026296954        0.7546717536
CD2        16.3438730704       16.2277345147       -0.3244896529
HD2        16.2342909205       15.2159100375        0.0473256190
C          12.5606415230       17.2740655266       -0.2070242909
O          11.6950365576       17.8147826999       -0.9021137771
N          13.1097475802       17.8666757375        0.8582089983
H          13.8565007288       17.3827031757        1.3364765247
CA         12.7470600799       19.1892351474        1.3846593343
HA         12.2877145303       19.7817729891        0.5917054307
CB         11.7279143451       19.0355673268        2.5287781772
HB2        12.1621436654       18.4083339431        3.3093933306
HB3        11.5507984314       20.0174951742        2.9707008270
CG         10.3838276258       18.4580485114        2.1165995816
CD1         9.3922801434       19.3057267234        1.5837169454
HD1         9.5878087237       20.3651463331        1.4707515113
CE1         8.1459348852       18.7779542843        1.1940995213
HE1         7.3821058822       19.4237971055        0.7833061797
CZ          7.8878521287       17.3976409371        1.3325630100
OH          6.6839528885       16.8981019972        0.9483513850
HH          6.6358539581       15.9370278019        1.0693910583
CE2         8.8790413757       16.5470059164        1.8694755371
HE2         8.6805645132       15.4896229877        1.9782645025
CD2        10.1232423836       17.0795823158        2.2640812061
HD2        10.8823017416       16.4265870330        2.6770243400
C          13.9901703630       19.9503597520        1.8789463110
O          14.9505631793       19.3417947000        2.3618074868
N          13.9639788429       21.2858861174        1.7883409652
H          13.1380238432       21.7128468583        1.3908684435
CH3        15.0457628058       22.1720267375        2.2193254383
HH31       15.9642908057       21.9331126598        1.6793831836
HH32       14.7803646847       23.2120750970        2.0203541606
HH33       15.2248996231       22.0524829497        3.2898154667
         110
Energy of minimum      4=    -153.0758728     first found at step       77 after                53562 function calls
HH31        3.2937673648        0.1874440861        1.9383042225
CH3         4.1733296047       -0.3679293735        1.6161444856
HH32        4.1041024797       -0.5706148125        0.5484389127
HH33        4.2323549532       -1.3077866141        2.1630952906
C           5.4108072221        0.4545395011        1.8887252617
O           6.2859437900        0.0225254619        2.6372493658
N           5.4822752605        1.6380416962        1.2827424031
H           4.7060424491        1.9138895096        0.6977492524
CA          6.5876945947        2.5955971577        1.4199899139
HA          7.0630271257        2.4547620428        2.3922342901
CB          7.6343858238        2.3205161919        0.3256974887
HB2         8.0059787162        1.3012293602        0.4423775228
HB3         7.1487177227        2.3797916608       -0.6499540892
CG          8.8220741779        3.2673293862        0.3434607303
CD1         9.8310535062        3.1120888796        1.3144436367
HD1         9.7738099776        2.3021287525        2.0318669907
CE1        10.9158775673        4.0102996702        1.3549619584
HE1        11.6940432485        3.8958257745        2.0970079033
CZ         10.9942663971        5.0684107658        0.4239964824
OH         12.0466737003        5.9282613092        0.4620625921
HH         11.9885863919        6.5899476101       -0.2386827188
CE2         9.9831703047        5.2235951364       -0.5493616469
HE2        10.0414796081        6.0322522949       -1.2650389300
CD2         8.8999030907        4.3234915600       -0.5875656139
HD2         8.1234544980        4.4487366656       -1.3327977902
C           6.0887958725        4.0504559590        1.3497002324
O           5.1091315198        4.3475194585        0.6586560478
N           6.7783621688        4.9611172410        2.0433276629
H           7.5835011958        4.6473601933        2.5679092215
CA          6.5573711035        6.4107386900        1.9925071018
HA          6.1857499418        6.6777990720        1.0016943337
CB          5.4961119592        6.8077491954        3.0324405061
HB2         4.5836630374        6.2411713784        2.8401675860
HB3         5.8501702269        6.5277099686        4.0261047013
CG          5.1467670337        8.2852803519        3.0245356857
CD1         5.6722218203        9.1446798257        4.0108016811
HD1         6.3132102473        8.7496263676        4.7899162765
CE1         5.3722082827       10.5211215777        3.9832254421
HE1         5.7773755085       11.1794850938        4.7395687708
CZ          4.5427775389       11.0419230734        2.9659429165
OH          4.2493316237       12.3689436371        2.9324860992
HH          4.6704041764       12.8421131938        3.6617857630
CE2         4.0157156042       10.1801199682        1.9802616022
HE2         3.3807113447       10.5844854197        1.2039357084
CD2         4.3182643493        8.8044902898        2.0100819635
HD2         3.9134996044        8.1462405178        1.2504933946
C           7.8731308860        7.1754972216        2.2268278952
O           8.7304752750        6.7289130690        2.9952241491
N           8.0286133402        8.3364157679        1.5854047575
H           7.2819985890        8.6593340856        0.9846608734
CA          9.1980666704        9.2117999972        1.7159901760
HA2         9.3022048769        9.5203759662        2.7567960951
HA3        10.0973948592        8.6636970152        1.4333170141
C           9.1060369635       10.4709877152        0.8457449884
O           8.1712795796       10.6296699027        0.0541881374
N          10.0792647870       11.3725181016        0.9887129318
H          10.8168875306       11.1818810905        1.6542488995
CA         10.1622458810       12.6369079745        0.2476776534
HA2         9.2676517728       13.2298831221        0.4410864763
HA3        10.2050009679       12.4281512357       -0.8218586023
C          11.3882671627       13.4778838647        0.6235804475
O          12.1917337605       13.0813451817        1.4737834380
N          11.5328809419       14.6433512926       -0.0113528683
H          10.8255672138       14.9082515149       -0.6833349236
CA         12.6262869190       15.5995151442        0.2107824495
HA         12.9909273362       15.4942225578        1.2341263733
CB         13.7837223227       15.2759712982       -0.7509479922
HB2        14.1201058261       14.2544729544       -0.5663500219
HB3        13.4127095749       15.3160024370       -1.7766312055
CG         14.9797901070       16.2029076488       -0.6215918290
CD1        15.8731208287       16.0511680844        0.4573801888
HD1        15.7234765891       15.2547871638        1.1768137380
CE1        16.9603058523       16.9353784772        0.6057157655
HE1        17.6452434012       16.8180640527        1.4343861181
CZ         17.1541057860       17.9784453460       -0.3265712374
OH         18.2012797792       18.8346802840       -0.1905600116
HH         18.7338164163       18.6201877451        0.5860575179
CE2        16.2605927689       18.1275237289       -1.4087070595
HE2        16.4148143736       18.9270214220       -2.1201020339
CD2        15.1762167737       17.2404806103       -1.5557676311
HD2        14.4892868992       17.3637914149       -2.3843995611
C          12.1516191301       17.0536612466        0.0317738191
O          11.2382132324       17.3244844497       -0.7542400501
N          12.7867886583       17.9911798009        0.7414784990
H          13.5428078964       17.6978359194        1.3450171474
CA         12.5825627173       19.4384091403        0.6086193106
HA         12.2879826449       19.6610359959       -0.4183470787
CB         11.4485983161       19.8852237903        1.5463899797
HB2        10.5566322290       19.2964028069        1.3265631977
HB3        11.7344504022       19.6694872782        2.5773466195
CG         11.0843142713       21.3540256683        1.4242527222
CD1        11.5102293759       22.2758514868        2.4018010872
HD1        12.0913720877       21.9380946362        3.2514904698
CE1        11.1855692607       23.6408555824        2.2742176091
HE1        11.5105792354       24.3529420982        3.0203338056
CZ         10.4331987729       24.0887486731        1.1673018922
OH         10.1228812920       25.4070069545        1.0480615647
HH          9.6069206826       25.5773340808        0.2493310195
CE2        10.0062548181       23.1647095372        0.1884418872
HE2         9.4287523553       23.5053372246       -0.6602418502
CD2        10.3324873716       21.8001383771        0.3190259364
HD2        10.0028640990       21.0924988802       -0.4325798722
C          13.8850460729       20.2056342703        0.9046728239
O          14.6727817016       19.7928154766        1.7621862639
N          14.1076657031       21.3284310289        0.2100883429
H          13.4020159930       21.6161346682       -0.4540114385
CH3        15.2903935211       22.1770654510        0.3548863924
HH31       15.3449045807       22.5730147464        1.3708863215
HH32       16.1938746314       21.5981665713        0.1520679171
HH33       15.2408781173       23.0117008182       -0.3467955550
         110
Energy of minimum      5=    -152.9676261     first found at step        0 after                  645 function calls
HH31        5.5249170522        1.6241136073        2.4626672170
CH3         6.5113816024        1.1662511935        2.5183960091
HH32        6.4994617560        0.3612699410        3.2517677486
HH33        6.7821963471        0.7667799551        1.5422040085
C           7.5237710805        2.2096201938        2.9289505825
O           8.1765126675        2.0630853648        3.9610564539
N           7.6527555764        3.2612152451        2.1224072015
H           7.0611230940        3.3011527888        1.3043475043
CA          8.5662503857        4.3905694228        2.3410363803
HA          8.7437980300        4.5036323370        3.4118903977
CB          9.9121444105        4.0926462289        1.6565878304