         110
Energy of minimum      1=    -153.3086854     first found at step        4 after                 3411 function calls
HH31        2.9040050549        0.4678928450       -0.2163420980
CH3         2.9431293009        1.4408652847       -0.7039536937
HH32        2.0191876474        1.9837503404       -0.5103949804
HH33        3.0675097481        1.3065017289       -1.7774275992
C           4.1102072738        2.2319557935       -0.1615328815
O           4.8369124985        1.7448308132        0.7029980010
N           4.2879882271        3.4504708321       -0.6680853977
H           3.6294952100        3.7704113292       -1.3644119415
CA          5.3496000440        4.3858632734       -0.2737391058
HA          5.6411858032        4.1812300498        0.7578508918
CB          6.5787012552        4.1684810101       -1.1757821596
HB2         6.9384007016        3.1471396030       -1.0413417177
HB3         6.2737355851        4.2715271451       -2.2187037725
CG          7.7286520449        5.1237781638       -0.9041609815
CD1         7.9273156570        6.2458621803       -1.7348102015
HD1         7.2811948006        6.4115640562       -2.5885091980
CE1         8.9571506446        7.1635607321       -1.4492408954
HE1         9.1113382554        8.0279014306       -2.0801558165
CZ          9.7951132875        6.9602009394       -0.3322577605
OH         10.7870974938        7.8490566011       -0.0602421153
HH         11.2898939218        7.5879094342        0.7217563342
CE2         9.6014029615        5.8318667897        0.4948198864
HE2        10.2435509287        5.6734510472        1.3504398938
CD2         8.5677962082        4.9175220470        0.2087349734
HD2         8.4158902969        4.0571813220        0.8497326174
C           4.8735521416        5.8485110202       -0.3432883378
O           4.0356970876        6.2001656618       -1.1798022100
N           5.4386920512        6.7074075176        0.5102997723
H           6.1269551770        6.3465670603        1.1567184804
CA          5.2956906581        8.1662660378        0.4615485364
HA          5.1125852072        8.4695373807       -0.5707525921
CB          4.0924137671        8.6011159306        1.3133570165
HB2         3.2000049142        8.0875357427        0.9522059373
HB3         4.2546282137        8.2866846603        2.3457946531
CG          3.8272182183       10.0956049742        1.2816536637
CD1         4.2387364051       10.9127780763        2.3540834000
HD1         4.7309341100       10.4735841830        3.2136430295
CE1         4.0179892068       12.3037097028        2.3095516147
HE1         4.3355907185       12.9295816145        3.1324015551
CZ          3.3828411126       12.8814932762        1.1884629347
OH          3.1671811662       14.2228194104        1.1379058469
HH          3.4952720735       14.6632921112        1.9325396979
CE2         2.9701594900       12.0620554690        0.1159498910
HE2         2.4841156819       12.5100067143       -0.7399367798
CD2         3.1930085769       10.6717640749        0.1631950230
HD2         2.8767283516       10.0460398100       -0.6629622161
C           6.5896484142        8.8527212978        0.9350158686
O           7.2418248071        8.3816916785        1.8720161994
N           6.9563748412        9.9703299941        0.3029983062
H           6.3701586111       10.3184372539       -0.4436155661
CA          8.1610519317       10.7461321027        0.6155170954
HA2         8.0904156149       11.1281698338        1.6344345116
HA3         9.0360369056       10.0979995910        0.5559354467
C           8.3752697090       11.9323411422       -0.3318823249
O           7.5955964448       12.1500619686       -1.2648778964
N           9.4371419782       12.7050138516       -0.0958184394
H          10.0372598791       12.4714373006        0.6843406988
CA          9.8076728302       13.8817938834       -0.8910696219
HA2         9.9690813801       13.5827306717       -1.9273292160
HA3         8.9915216642       14.6048321490       -0.8708132318
C          11.0787605496       14.5756357337       -0.3865142441
O          11.6850382758       14.1469745981        0.6005634655
N          11.4837629595       15.6514672562       -1.0654473024
H          10.9266231697       15.9523345821       -1.8535473377
CA         12.6643113211       16.4639126607       -0.7406249775
HA         12.8609057368       16.3960247402        0.3308218321
CB         13.8842213134       15.9041615269       -1.4930530725
HB2        14.0234090725       14.8595823367       -1.2098298285
HB3        13.6788576082       15.9255524119       -2.5647961672
CG         15.1811400683       16.6461393362       -1.2221296572
CD1        15.6853371153       17.5619305055       -2.1682171844
HD1        15.1580079756       17.7255115653       -3.1004500502
CE1        16.8734304918       18.2716196356       -1.9035791217
HE1        17.2591668403       18.9732693187       -2.6304935834
CZ         17.5618655164       18.0653252010       -0.6880113939
OH         18.7134034095       18.7400609290       -0.4289461529
HH         18.9515272451       19.3260016051       -1.1586917829
CE2        17.0568549868       17.1471016798        0.2576233924
HE2        17.5895400446       16.9919576728        1.1857921929
CD2        15.8679139174       16.4399358122       -0.0094026039
HD2        15.4828995484       15.7366692548        0.7194612411
C          12.4384337135       17.9485666912       -1.0814600404
O          11.6989808246       18.2724803139       -2.0162570979
N          13.0868846276       18.8496160722       -0.3372964739
H          13.6995413151       18.5112724220        0.3921420866
CA         13.0827577431       20.2993477659       -0.5681716209
HA         12.9744320487       20.4866507343       -1.6378337917
CB         11.8828778440       20.9293443917        0.1595858359
HB2        10.9699165275       20.4285645058       -0.1665090964
HB3        11.9851392973       20.7522081445        1.2316433060
CG         11.7156320332       22.4178057118       -0.0887670316
CD1        12.0893091253       23.3502043922        0.9002694077
HD1        12.4876404391       23.0069183202        1.8475774042
CE1        11.9513660355       24.7316611824        0.6591680319
HE1        12.2396860650       25.4457982037        1.4184801388
CZ         11.4375530496       25.1844176551       -0.5757776068
OH         11.3022081928       26.5156817491       -0.8159861177
HH         11.5932085686       27.0420425526       -0.0600376804
CE2        11.0630465344       24.2498631739       -1.5649465648
HE2        10.6692543012       24.6022312703       -2.5084915779
CD2        11.2021614574       22.8693355522       -1.3207876542
HD2        10.9125178905       22.1547229181       -2.0821168999
C          14.4077077849       20.9365751187       -0.1082324227
O          15.0205699930       20.4764605718        0.8606815058
N          14.8437798748       22.0043470876       -0.7883165152
H          14.2714587561       22.3382840992       -1.5517621136
CH3        16.0707912185       22.7416168173       -0.4868284273
HH31       16.9300381107       22.0685981939       -0.5158056468
HH32       16.2199457568       23.5364620159       -1.2199455416
HH33       16.0044563052       23.1871080273        0.5077441142
         110
Energy of minimum      2=    -153.1320666     first found at step       73 after                50372 function calls
HH31        0.6692282573        1.0181300498       -1.1715970750
CH3         0.3452318570        2.0025108801       -0.8371054432
HH32       -0.3993237828        1.8938288049       -0.0498249255
HH33       -0.0866523506        2.5473043038       -1.6752781299
C           1.5353714919        2.7660653651       -0.3054572351
O           1.5481834396        3.1578647911        0.8604770447
N           2.5373971554        2.9773516713       -1.1563700222
H           2.4359488612        2.6298955223       -2.0982257115
CA          3.7606138076        3.7178892893       -0.8220181751
HA          4.1278679639        3.3528095861        0.1387974909
CB          4.8404518970        3.4219342114       -1.8772916638
HB2         5.0429263152        2.3496171753       -1.8834385730
HB3         4.4539492639        3.6877306457       -2.8628104186
CG          6.1485594254        4.1601344106       -1.6476497988
CD1         6.4317183757        5.3384774563       -2.3686407542
HD1         5.7329678933        5.7017014888       -3.1126572349
CE1         7.6165383117        6.0563078186       -2.1132533293
HE1         7.8365560104        6.9628408796       -2.6597973508
CZ          8.5251826721        5.5957040319       -1.1368512247
OH          9.6667678374        6.2924261576       -0.8930414610
HH         10.2021657281        5.8650319596       -0.2124504329
CE2         8.2455750824        4.4109943286       -0.4206579000
HE2         8.9413227894        4.0556889257        0.3271585547
CD2         7.0574593511        3.6971251356       -0.6756003815
HD2         6.8411948995        2.7934640457       -0.1181412815
C           3.5190990601        5.2340798542       -0.6822621403
O           2.6959321649        5.8160220235       -1.3960044643
N           4.2821463842        5.8823990264        0.2029620632
H           4.9454933209        5.3411632299        0.7399337732
CA          4.3813569047        7.3403203489        0.3276899896
HA          4.1650592387        7.7938546950       -0.6411007787
CB          3.3435901969        7.8489186080        1.3410627237
HB2         2.3506853665        7.5305168499        1.0195806713
HB3         3.5366002274        7.3869358827        2.3108157462
CG          3.3312461262        9.3587003724        1.5000980167
CD1         3.9592005065        9.9610374525        2.6090288072
HD1         4.4381907789        9.3473004726        3.3625090534
CE1         3.9722084594       11.3639302109        2.7371640201
HE1         4.4539683328       11.8319152806        3.5846653779
CZ          3.3563834734       12.1696473190        1.7556079420
OH          3.3727001806       13.5230799442        1.8827421984
HH          2.9178083304       13.9522059500        1.1465036245
CE2         2.7260131975       11.5656343656        0.6456344437
HE2         2.2531378488       12.1809922723       -0.1076606742
CD2         2.7153224383       10.1622155922        0.5200292175
HD2         2.2330079645        9.7007780716       -0.3335985112
C           5.8072921131        7.7527162355        0.7354396790
O           6.4519616681        7.0698761435        1.5375732993
N           6.2972414735        8.8731072396        0.1990792221
H           5.7135501864        9.4007246607       -0.4358786567
CA          7.6357050365        9.4087694091        0.4678883382
HA2         7.7186192834        9.6594955294        1.5259061930
HA3         8.3836863641        8.6488044486        0.2394989061
C           7.9575148624       10.6630451391       -0.3529555695
O           7.1462146532       11.1160821690       -1.1668018068
N           9.1471556800       11.2293910643       -0.1424109514
H           9.7662197999       10.8079030881        0.5376258871
CA          9.6340243883       12.4311546758       -0.8303344415
HA2         9.6549356673       12.2498841886       -1.9055209968
HA3         8.9509142423       13.2596998853       -0.6401445478
C          11.0395482525       12.8536682041       -0.3857656506
O          11.6511853379       12.2124405891        0.4746902117
N          11.5535535519       13.9365865593       -0.9735222388
H          10.9866788804       14.4190137841       -1.6575846813
CA         12.8737459657       14.5125322055       -0.6828332671
HA         13.1476456831       14.2770024457        0.3471110049
CB         13.9187463940       13.8785916110       -1.6184365273
HB2        13.9246024632       12.7989813430       -1.4600150811
HB3        13.6192816420       14.0539665037       -2.6532522969
CG         15.3318031761       14.3978978253       -1.4181653595
CD1        15.8691269837       15.3506291433       -2.3077783300
HD1        15.2855471723       15.6959736471       -3.1526937785
CE1        17.1630566344       15.8651492681       -2.0948010703
HE1        17.5794737740       16.5981982106       -2.7717797025
CZ         17.9253636388       15.4266145819       -0.9910869615
OH         19.1750398909       15.9232619047       -0.7914280685
HH         19.5862137456       15.5388763459       -0.0066223256
CE2        17.3889664178       14.4679034647       -0.1034733780
HE2        17.9724463012       14.1288656486        0.7416300813
CD2        16.0932622827       13.9569672263       -0.3177093108
HD2        15.6818069890       13.2253084744        0.3675498048
C          12.8658970296       16.0460609062       -0.8246458977
O          12.1092605836       16.5990691085       -1.6291052323
N          13.7237613733       16.7305221608       -0.0619890878
H          14.3311636350       16.2080167092        0.5543895416
CA         13.9696517450       18.1747300344       -0.1493957686
HA         13.7982203751       18.5009748427       -1.1766131740
CB         12.9847783227       18.9197605093        0.7670632741
HB2        11.9669152255       18.6331917761        0.4978630038
HB3        13.1496980719       18.6025887848        1.7982420532
CG         13.0844995212       20.4325363586        0.6860675224
CD1        13.7299380328       21.1582781742        1.7077626810
HD1        14.1484569926       20.6389391181        2.5616057372
CE1        13.8378615191       22.5605296486        1.6203864911
HE1        14.3343992818       23.1158088207        2.4044731996
CZ         13.2985185741       23.2415819332        0.5071124837
OH         13.3993529547       24.5942528925        0.4154278556
HH         13.8618887319       24.9661076933        1.1776483034
CE2        12.6519577048       22.5138750161       -0.5149024270
HE2        12.2400397409       23.0407211350       -1.3647649845
CD2        12.5456879449       21.1119534952       -0.4245503792
HD2        12.0477746332       20.5566424358       -1.2106076975
C          15.4291404217       18.5057976482        0.2153606215
O          16.0205932109       17.8532426112        1.0817502045
N          16.0070026724       19.5264434901       -0.4304238426
H          15.4481936151       20.0301862248       -1.1055043507
CH3        17.3828488594       19.9754011339       -0.2172363854
HH31       18.0785120602       19.1564835431       -0.4120747424
HH32       17.5116120168       20.3109073569        0.8137117564
HH33       17.6151487993       20.8035036250       -0.8893280499
         110
Energy of minimum      3=    -153.1212225     first found at step       65 after                45166 function calls
HH31       -0.3533878554        1.9455543067       -1.0974201336
CH3        -0.5691319348        2.9386224102       -0.7060967753
HH32       -1.3101639305        2.8648742283        0.0885214538
HH33       -0.9536396195        3.5690784709       -1.5064321806
C           0.7007941548        3.5462949653       -0.1582657455
O           0.7699620822        3.8715698405        1.0260006450
N           1.7076486871        3.6989305643       -1.0159927891
H           1.5579676296        3.4147868117       -1.9725323893
CA          3.0053891149        4.2909682699       -0.6669871513
HA          3.3458592161        3.8391778370        0.2664424236
CB          4.0343757517        3.9426546436       -1.7565278474
HB2         4.1245710254        2.8570900893       -1.8221944560
HB3         3.6641739445        4.2991925945       -2.7193938205
CG          5.4149205854        4.5291782868       -1.5137933477
CD1         5.8087932454        5.7092115342       -2.1777866971
HD1         5.1413336293        6.1817792641       -2.8883660541
CE1         7.0650470123        6.2866667789       -1.9082023204
HE1         7.3703497586        7.1938139978       -2.4109850115
CZ          7.9343725927        5.6832733583       -0.9747486241
OH          9.1453141999        6.2447792009       -0.7170450700
HH          9.6428838188        5.7285434990       -0.0701731784
CE2         7.5432774743        4.4968532649       -0.3158875229
HE2         8.2086432800        4.0322247947        0.3989171649
CD2         6.2841610458        3.9236505313       -0.5847545330
HD2         5.9830524915        3.0183574243       -0.0710303586
C           2.9240751210        5.8142678282       -0.4442329806
O           2.1561227858        6.5150493167       -1.1111945638
N           3.7619568177        6.3324484767        0.4588840728
H           4.3726643402        5.6979413250        0.9545989523
CA          4.0132977735        7.7636888719        0.6571450761
HA          3.8317825984        8.2883605571       -0.2824321074
CB          3.0478422117        8.3209950843        1.7153363255
HB2         2.0230120168        8.1230768152        1.3973041789
HB3         3.2058535373        7.7908142601        2.6561041635
CG          3.1930705664        9.8135433402        1.9521668869
CD1         3.8983515321       10.2888553276        3.0764011974
HD1         4.3247944118        9.5893339484        3.7854871314
CE1         4.0573287157       11.6742024784        3.2787311192
HE1         4.5999491708       12.0373440643        4.1409121889
CZ          3.5089832577       12.5895682154        2.3537959614
OH          3.6589779793       13.9276165047        2.5418222318
HH          4.1593533262       14.1171480036        3.3460630356
CE2         2.8019531622       12.1124330277        1.2292903152
HE2         2.3840532142       12.8180510499        0.5243787580
CD2         2.6453932135       10.7266657750        1.0294495761
HD2         2.1037782077       10.3639448182        0.1639001555
C           5.4797449805        8.0047539497        1.0583124068
O           6.0598321183        7.2191458374        1.8143593872
N           6.0773286781        9.0935577123        0.5680122998
H           5.5439835208        9.7100725101       -0.0300704937
CA          7.4684719190        9.4719761226        0.8367940498
HA2         7.5905527936        9.6657598593        1.9029398817
HA3         8.1282765697        8.6477426828        0.5638932333
C           7.9123666465       10.7198175642        0.0645360909
O           7.1424973469       11.2948400467       -0.7116222756
N           9.1601359205       11.1433470749        0.2743360403
H           9.7402492857       10.6266302491        0.9222659599
CA          9.7646542741       12.3147750323       -0.3712933409
HA2         9.7477312993       12.1811551797       -1.4535065780
HA3         9.1799690985       13.2034088153       -0.1309408381
C          11.2152598227       12.5609422556        0.0609155724
O          11.7665543907       11.8191455972        0.8803482105
N          11.8357258388       13.6061694071       -0.4912561891
H          11.3143053264       14.1775626683       -1.1421455559
CA         13.2159553829       14.0207766682       -0.2045649560
HA         13.4791622568       13.7111948434        0.8084310863
CB         14.1691690536       13.3185106352       -1.1881655067
HB2        14.0586266643       12.2387742771       -1.0757384693
HB3        13.8738371279       13.5713609291       -2.2080308091
CG         15.6339566126       13.6707334021       -0.9961908546
CD1        16.2582543482       14.5975394423       -1.8559048954
HD1        15.7024326503       15.0418215792       -2.6728420776
CE1        17.6043378089       14.9574777025       -1.6489081346
HE1        18.0877790896       15.6699188081       -2.3029542981
CZ         18.3317732271       14.3896135927       -0.5812110331
OH         19.6316901131       14.7372350380       -0.3873341054
HH         20.0108909542       14.2757059656        0.3715687643
CE2        17.7077050489       13.4568556947        0.2762321627
HE2        18.2641278815       13.0188360783        1.0936228888
CD2        16.3602316320       13.1007272583        0.0681685845
HD2        15.8820124010       12.3887535137        0.7304367557
C          13.3748236871       15.5507385228       -0.2811372175
O          12.6705463690       16.2183774994       -1.0451534210
N          14.3153907011       16.1026998784        0.4913501468
H          14.8716173433       15.4900288598        1.0719688027
CA         14.7175092698       17.5137808827        0.4598922655
HA         14.5661512057       17.9020884544       -0.5487248600
CB         13.8360392288       18.3206915767        1.4278010519
HB2        12.7884830138       18.1594436990        1.1684544314
HB3        13.9819967806       17.9419363506        2.4408986707
CG         14.1005691692       19.8155681325        1.4087491097
CD1        14.8389292648       20.4202624891        2.4462087509
HD1        15.2117430608       19.8208651327        3.2681889190
CE1        15.0993199641       21.8047738090        2.4159332612
HE1        15.6669780756       22.2670369930        3.2120197612
CZ         14.6199645670       22.5894882922        1.3442318634
OH         14.8677731192       23.9257326864        1.3077067509
HH         15.3810599628       24.2105467229        2.0749177902
CE2        13.8802669008       21.9829794609        0.3063941986
HE2        13.5149096276       22.5889320092       -0.5114356364
CD2        13.6216064913       20.5984826485        0.3396199699
HD2        13.0525493678       20.1364264071       -0.4584105465
C          16.2104202317       17.6666484595        0.8071767547
O          16.7405296668       16.9155379103        1.6324602932
N          16.8865576254       18.6455334897        0.1929274969
H          16.3756368293       19.2368197070       -0.4482423230
CH3        18.3068475734       18.9313289446        0.3955650333
HH31       18.9046627016       18.0506404106        0.1515563221
HH32       18.4888180576       19.2047080031        1.4367897514
HH33       18.6179137803       19.7580005332       -0.2457431735
         110
Energy of minimum      4=    -152.9984868     first found at step       31 after                21313 function calls
HH31        0.8700178471        1.4807075371       -0.8532407487
CH3         0.6290494671        2.4040198534       -0.3285576627
HH32        0.0353772728        2.1771526474        0.5557895163
HH33        0.0642892422        3.0605350202       -0.9887784222
C           1.9087865611        3.0922843264        0.0845549987
O           2.1369749934        3.3120228316        1.2731338510
N           2.7462346317        3.4318712137       -0.8932541976
H           2.4717191893        3.2230267380       -1.8414816327
CA          4.0228012530        4.1260891864       -0.6813984603
HA          4.5491568684        3.6293063436        0.1355971883
CB          4.8910695190        3.9937286844       -1.9446586321
HB2         5.0695660214        2.9351013818       -2.1404771405
HB3         4.3395690610        4.3957211897       -2.7964384428
CG          6.2324259159        4.7013264548       -1.8503020739
CD1         6.4035974829        5.9734921262       -2.4340795234
HD1         5.5898004289        6.4347604453       -2.9806244154
CE1         7.6279719983        6.6561628674       -2.2956191459
HE1         7.7632616487        7.6336993233       -2.7372471990
CZ          8.6880549620        6.0666248801       -1.5746369861
OH          9.8674687019        6.7297024404       -1.4427632809
HH         10.5081262976        6.2127140650       -0.9379867568
CE2         8.5193787190        4.7889142544       -0.9970126376
HE2         9.3310632919        4.3348865531       -0.4451392657
CD2         7.2919128532        4.1100758404       -1.1338759625
HD2         7.1623322073        3.1338155069       -0.6819257046
C           3.8378069870        5.6043910941       -0.2850736058
O           2.9111854044        6.2766391416       -0.7489038049
N           4.7583585282        6.1243534032        0.5324842764
H           5.4968127905        5.5165368744        0.8588901434
CA          4.9048446187        7.5498353302        0.8446881477
HA          4.5269853138        8.1365415380        0.0056222936
CB          4.0746217253        7.8988649090        2.0902289801
HB2         3.0347548778        7.6214614356        1.9104591347
HB3         4.4300774116        7.3040405649        2.9334007857
CG          4.1173831867        9.3699613356        2.4629588400
CD1         4.9471448728        9.8126282010        3.5130955925
HD1         5.5448176977        9.1007244511        4.0698423093
CE1         5.0077907832       11.1823034428        3.8382253968
HE1         5.6459747462       11.5206110757        4.6431689930
CZ          4.2356883893       12.1146478271        3.1111258585
OH          4.2895831194       13.4378596194        3.4184224527
HH          4.8929950540       13.6051215904        4.1539617770
CE2         3.4043320885       11.6700122620        2.0607885135
HE2         2.8151629411       12.3884890985        1.5075182678
CD2         3.3465007891       10.2999522051        1.7376949989
HD2         2.7087268419        9.9624815661        0.9293343705
C           6.3880385659        7.9100795898        1.0443739222
O           7.1522007276        7.1252626445        1.6148179408
N           6.7957933632        9.0979113167        0.5907379379
H           6.1185815220        9.7057860028        0.1501444733
CA          8.1710121639        9.5982226951        0.6865732314
HA2         8.4443596032        9.7044670174        1.7368666947
HA3         8.8517559288        8.8791463021        0.2297421090
C           8.3677283503       10.9529510546       -0.0037496795
O           7.4333282199       11.5106208742       -0.5882775255
N           9.5883962732       11.4878745305        0.0606369730
H          10.3103392163       10.9792430954        0.5540284705
CA          9.9703650688       12.7726373970       -0.5376962799
HA2         9.7922954092       12.7388007604       -1.6130902565
HA3         9.3521941726       13.5665916620       -0.1172230385
C          11.4424726383       13.1333906119       -0.3044398158
O          12.1844475428       12.3829402915        0.3373892816
N          11.8667821308       14.2863578755       -0.8269518671
H          11.1969864588       14.8557190841       -1.3261805829
CA         13.2307759799       14.8198513163       -0.7078876513
HA         13.6813104480       14.4463576943        0.2134036105
CB         14.0727464034       14.3211147899       -1.8953207530
HB2        14.0655007158       13.2299346378       -1.8980874160
HB3        13.6044061543       14.6514308217       -2.8241984690
CG         15.5182400117       14.7860079290       -1.8765801950
CD1        15.9341550247       15.8432973580       -2.7115193673
HD1        15.2270993034       16.3155260221       -3.3830588188
CE1        17.2687276021       16.2934786779       -2.6726526688
HE1        17.5863223200       17.1041564521       -3.3140921010
CZ         18.1928900533       15.6843060315       -1.7957618310
OH         19.4844025827       16.1074262405       -1.7585145195
HH         19.6384058184       16.8279452738       -2.3827688328
CE2        17.7755950487       14.6249202288       -0.9615185450
HE2        18.4883630994       14.1611123115       -0.2935633114
CD2        16.4401137504       14.1778923252       -1.0018063286
HD2        16.1233780057       13.3650615121       -0.3591190703
C          13.2306514537       16.3582025283       -0.6381632815
O          12.3553020702       17.0125100644       -1.2136638003
N          14.2194857978       16.9365919994        0.0501900456
H          14.9187900842       16.3395100731        0.4701563340
CA         14.4501854066       18.3830829646        0.1475755110
HA         14.1077092909       18.8584528463       -0.7731457080
CB         13.6349730719       18.9527663239        1.3210865868
HB2        12.5865784705       18.6817696879        1.1867495872
HB3        13.9744126550       18.4872838123        2.2480432602
CG         13.7150253787       20.4625713714        1.4598233693
CD1        14.5145717544       21.0429121406        2.4653705342
HD1        15.0672474641       20.4121850857        3.1514015226
CE1        14.6024219847       22.4446742835        2.5790640806
HE1        15.2172691932       22.8884103165        3.3502554671
CZ         13.8881570302       23.2711884124        1.6841993335
OH         13.9684907338       24.6244153903        1.7871837664
HH         14.5468253560       24.8892798500        2.5142124799
CE2        13.0873550410       22.6889333202        0.6783178169
HE2        12.5417875399       23.3267410403       -0.0036427126
CD2        13.0015949536       21.2870968595        0.5673096177
HD2        12.3848754585       20.8436140927       -0.2054562032
C          15.9500231644       18.6943389742        0.3109831740
O          16.6870885464       17.9177491431        0.9272158384
N          16.4017289857       19.8357714510       -0.2237167809
H          15.7307431211       20.4322459162       -0.6883788232
CH3        17.7882281677       20.2974155978       -0.1564625333
HH31       18.4549641321       19.5477328142       -0.5872035054
HH32       18.0749214626       20.4696399736        0.8828559944
HH33       17.8998331918       21.2302529149       -0.7122012271
         110
Energy of minimum      5=    -152.9588522     first found at step        0 after                  645 function calls
HH31        2.2700484809        0.7961735402        0.4601821685
CH3         2.3824908283        1.7179816738       -0.1086739286
HH32        1.5392936818        2.3768503863        0.0932342010
HH33        2.4175865802        1.4884372845       -1.1726037271
C           3.6638638658        2.4086031548        0.2953450515
O           4.3900036054        1.9086436707        1.1529871528
N           3.9395047748        3.5561783072       -0.3211722791
H           3.2739888079        3.8956448622       -1.0013908719
CA          5.1218311152        4.3909313552       -0.0701874716
HA          5.4599244689        4.2315320397        0.9551512104
CB          6.2528263381        3.9663260926       -1.0237426686