         110
Energy of minimum      1=    -153.4813884     first found at step       21 after                15064 function calls
HH31        0.9238971881        2.3761675041        2.1826616785
CH3         1.3314868519        2.9407612461        1.3453598568
HH32        0.6855850210        3.7903450046        1.1288574870
HH33        1.3937235386        2.2987848983        0.4679426742
C           2.7130288691        3.4405643193        1.6969877785
O           3.1992588549        3.1861724255        2.7977339777
N           3.3426128551        4.1511338454        0.7633266362
H           2.8554392672        4.3218420207       -0.1052195112
CA          4.6814566006        4.7389881228        0.9039605977
HA          4.8742261149        4.9381847852        1.9595105682
CB          5.7308545100        3.7315232177        0.4023587455
HB2         5.6415423845        2.8120359422        0.9831031173
HB3         5.5121032757        3.4816812249       -0.6373507582
CG          7.1652805435        4.2203090966        0.5021884396
CD1         7.8342138491        4.6942934410       -0.6449986271
HD1         7.3328408994        4.6927842799       -1.6054885400
CE1         9.1543831831        5.1766772040       -0.5466072141
HE1         9.6662127729        5.5391665356       -1.4276118439
CZ          9.8102686300        5.1852096484        0.7039277463
OH         11.0869424961        5.6415584686        0.8054593565
HH         11.4300516615        5.9255336912       -0.0513801254
CE2         9.1401875860        4.7088551370        1.8513100598
HE2         9.6483174698        4.7163150406        2.8057930538
CD2         7.8196086163        4.2284049228        1.7498634663
HD2         7.3080539556        3.8650889567        2.6332285820
C           4.7940835495        6.0750712565        0.1470604810
O           4.1456861521        6.2689263812       -0.8862092218
N           5.6325584582        6.9879161433        0.6469327050
H           6.1538894542        6.7486008673        1.4793662013
CA          5.9697208206        8.2665312956        0.0099942410
HA          5.9206607957        8.1443473530       -1.0733706759
CB          4.9443592665        9.3367958805        0.4257844766
HB2         3.9439521888        8.9893865957        0.1631984724
HB3         4.9750501268        9.4549733644        1.5103024433
CG          5.1626108131       10.6879599036       -0.2328338078
CD1         5.6938380276       11.7643206201        0.5073676045
HD1         5.9198645893       11.6410435209        1.5597415476
CE1         5.9432160562       13.0009789723       -0.1208301589
HE1         6.3517171550       13.8262409937        0.4462244408
CZ          5.6627854865       13.1622624656       -1.4951609496
OH          5.9017495467       14.3496761342       -2.1109030043
HH          6.2489555897       15.0104712723       -1.4911611288
CE2         5.1261911792       12.0860134879       -2.2335218830
HE2         4.9112462460       12.2170217185       -3.2851561114
CD2         4.8761918652       10.8518465853       -1.6025828602
HD2         4.4676191941       10.0269636975       -2.1741640563
C           7.4018449995        8.7073378835        0.3676808803
O           7.9172662772        8.3673852405        1.4370436420
N           8.0346587512        9.4899171754       -0.5103251201
H           7.5439418842        9.7579160598       -1.3531830937
CA          9.3600215585       10.0816734032       -0.3049811621
HA2         9.4173889735       10.4967224791        0.7021545124
HA3        10.1260761108        9.3119153277       -0.3999697703
C           9.6665176750       11.1995606987       -1.3083541024
O           9.0431475961       11.2863358255       -2.3704876596
N          10.6227048790       12.0655724598       -0.9692996261
H          11.1035431286       11.9285165336       -0.0899677730
CA         11.0174437083       13.2321404170       -1.7672861517
HA2        11.4289431635       12.9031554153       -2.7219187935
HA3        10.1370443374       13.8435183005       -1.9694990232
C          12.0639525275       14.1047540371       -1.0648459376
O          12.6889833466       13.6762742587       -0.0895025899
N          12.2463278490       15.3348624023       -1.5503380675
H          11.6852003891       15.6209750165       -2.3406790129
CA         13.1620279887       16.3363792321       -0.9876134595
HA         13.4073800836       16.0577218758        0.0386146484
CB         14.4675908832       16.3484738073       -1.7982951870
HB2        14.8941380795       15.3440241293       -1.7925145177
HB3        14.2393936273       16.5997937863       -2.8355534331
CG         15.5137012706       17.3139941899       -1.2708690075
CD1        15.7005987778       18.5660079691       -1.8913689824
HD1        15.1080164304       18.8369664840       -2.7570212058
CE1        16.6545905342       19.4713938907       -1.3858746347
HE1        16.7968910413       20.4314741932       -1.8628594628
CZ         17.4257411029       19.1245907530       -0.2548196444
OH         18.3525244370       19.9902965245        0.2352485512
HH         18.3816434133       20.8059002147       -0.2812556243
CE2        17.2387012390       17.8700629912        0.3645165222
HE2        17.8333962785       17.6093992548        1.2292415015
CD2        16.2832740956       16.9674247426       -0.1427271800
HD2        16.1417116562       16.0058192130        0.3361629345
C          12.5111909061       17.7298031677       -0.9444501378
O          11.7623019582       18.0996566606       -1.8541170735
N          12.8090573585       18.5006081477        0.1064805708
H          13.4845840833       18.1535891797        0.7725889850
CA         12.2423690646       19.8279307245        0.3799938236
HA         11.8680037611       20.2612592029       -0.5489355819
CB         11.0646058491       19.6981362431        1.3635106508
HB2        11.4253978774       19.2495017506        2.2908197043
HB3        10.7073117617       20.6989107285        1.6117224104
CG          9.8835732299       18.8902948341        0.8500145610
CD1         8.8952612189       19.5157092317        0.0639726153
HD1         8.9786572332       20.5694277568       -0.1731907037
CE1         7.7971311627       18.7747664925       -0.4155342552
HE1         7.0399101217       19.2578986188       -1.0178569025
CZ          7.6871872662       17.3999084262       -0.1132555657
OH          6.6268353647       16.6847842690       -0.5751730086
HH          6.0175298282       17.2561346774       -1.0614596467
CE2         8.6765796003       16.7724310582        0.6740428589
HE2         8.5859148757       15.7204535980        0.9058820077
CD2         9.7697887791       17.5186607964        1.1583446270
HD2        10.5250537022       17.0355949779        1.7659213002
C          13.3065561178       20.7836048336        0.9483109851
O          14.2242844435       20.3556806473        1.6556816736
N          13.1698770061       22.0854152494        0.6669574375
H          12.3865166703       22.3606132275        0.0897885353
CH3        14.0741373830       23.1381440015        1.1310391935
HH31       15.0885584602       22.9449817433        0.7761263874
HH32       13.7467108285       24.1079551705        0.7515770006
HH33       14.0828541097       23.1713108942        2.2224444069
         110
Energy of minimum      2=    -153.4419363     first found at step       75 after                52866 function calls
HH31        3.5982034183        2.0263182308        1.5282822619
CH3         4.2374055513        1.6624221589        0.7252521182
HH32        4.4306470267        0.5998760022        0.8653406510
HH33        3.7434273093        1.8205102663       -0.2322779323
C           5.5437087826        2.4209291638        0.7440848829
O           6.6042368660        1.8188479086        0.9040295486
N           5.4663925118        3.7402720871        0.5817969236
H           4.5480360970        4.1471206741        0.4725255487
CA          6.6095705542        4.6625671066        0.5797790784
HA          7.4120784194        4.2383536840        1.1856663805
CB          7.1269316685        4.8267570741       -0.8614049271
HB2         7.4557597153        3.8541430488       -1.2308505164
HB3         6.3025388583        5.1546825070       -1.4971321959
CG          8.2768884342        5.8097347827       -1.0031787147
CD1         8.0340197837        7.1211690932       -1.4610773933
HD1         7.0324455741        7.4212104221       -1.7448988699
CE1         9.0898838628        8.0505006092       -1.5370565320
HE1         8.9086876544        9.0585824285       -1.8832580947
CZ         10.3947385225        7.6699845130       -1.1579067628
OH         11.4103084054        8.5706532905       -1.2321071192
HH         12.2487062584        8.1804334439       -0.9540006779
CE2        10.6395037573        6.3540118241       -0.7073188016
HE2        11.6391374237        6.0600284932       -0.4177665093
CD2         9.5803598806        5.4275886834       -0.6287873673
HD2         9.7691837484        4.4210721322       -0.2746555429
C           6.2391150732        6.0288099126        1.1855482912
O           5.0954247349        6.4806697299        1.0705823504
N           7.2183828171        6.7029693002        1.7956669061
H           8.1322937049        6.2731141115        1.8377178153
CA          7.1367335374        8.0993043526        2.2368934764
HA          6.4288883898        8.6311355240        1.5987259068
CB          6.6222277886        8.1598665454        3.6840472314
HB2         5.6564076924        7.6549167627        3.7369862080
HB3         7.3118269102        7.6141426724        4.3303791262
CG          6.4509089493        9.5719161793        4.2147095854
CD1         7.4191760708       10.1300301974        5.0736679559
HD1         8.2814960936        9.5465398462        5.3733118231
CE1         7.2721700937       11.4514449457        5.5394493562
HE1         8.0125854657       11.8857670518        6.1971074321
CZ          6.1549943215       12.2195572696        5.1472771004
OH          6.0180978893       13.4947816148        5.5981290953
HH          5.2134724704       13.9055564743        5.2561250905
CE2         5.1844124639       11.6593846561        4.2879615445
HE2         4.3272818476       12.2459634556        3.9863230096
CD2         5.3346877116       10.3376526927        3.8232847470
HD2         4.5899417347        9.9104172781        3.1621749451
C           8.5061672405        8.7898192300        2.1039917306
O           9.5454614256        8.1750859365        2.3631119184
N           8.5123915545       10.0675594406        1.7162553177
H           7.6275966977       10.5234375716        1.5385755458
CA          9.7223369969       10.8751811466        1.5304656591
HA2        10.2456283527       10.9661631439        2.4828520850
HA3        10.3870038224       10.3764968970        0.8242343437
C           9.4295206931       12.2846894775        1.0031016493
O           8.2749308580       12.6404330867        0.7458729306
N          10.4775779248       13.0939780005        0.8389289502
H          11.3976189803       12.7407698838        1.0672178883
CA         10.3984014576       14.4741957308        0.3457197319
HA2         9.7600702635       15.0599331051        1.0080978443
HA3         9.9493449206       14.4787467239       -0.6480858313
C          11.7653185674       15.1639770653        0.2596963579
O          12.7962964178       14.5704559999        0.5920711176
N          11.7745315843       16.4217939336       -0.1877216618
H          10.8887358385       16.8470203938       -0.4255713274
CA         12.9720378249       17.2608079549       -0.3331742662
HA         13.7228549473       16.9409697683        0.3915723952
CB         13.5524667885       17.0723841644       -1.7462767655
HB2        13.7989623025       16.0189374897       -1.8883335241
HB3        12.7864514177       17.3291232920       -2.4801600353
CG         14.7982457408       17.8955300059       -2.0237345669
CD1        16.0395254848       17.4927261814       -1.4924936310
HD1        16.1100859795       16.5803720288       -0.9121220159
CE1        17.1905298023       18.2757548377       -1.7112567448
HE1        18.1427204786       17.9656874702       -1.3028617200
CZ         17.1004248681       19.4688860393       -2.4616072506
OH         18.2067276242       20.2288973458       -2.6776857397
HH         18.9876679239       19.8413458317       -2.2621470617
CE2        15.8572759342       19.8697111312       -2.9959567727
HE2        15.7946514736       20.7833274773       -3.5708023489
CD2        14.7089610064       19.0835148605       -2.7777540589
HD2        13.7557869574       19.3995398320       -3.1843223184
C          12.6606775045       18.7439595146       -0.0589489212
O          11.5425887337       19.2074425341       -0.3049834239
N          13.6549636831       19.4930605724        0.4271645779
H          14.5512182518       19.0507775914        0.5787753226
CA         13.6042775416       20.9469614499        0.6206625960
HA         12.9300877495       21.3789757020       -0.1208438652
CB         13.0502293777       21.2597155783        2.0207192485
HB2        12.0816187305       20.7702430277        2.1340580007
HB3        13.7191437090       20.8340619502        2.7707183873
CG         12.8641140847       22.7407396268        2.2980712286
CD1        13.7858117711       23.4335903828        3.1089869336
HD1        14.6260417631       22.9081627761        3.5470035577
CE1        13.6211542016       24.8123258375        3.3489197190
HE1        14.3298137888       25.3427482233        3.9703136714
CZ         12.5305561788       25.5027500985        2.7761961184
OH         12.3654502168       26.8330876784        3.0025458475
HH         13.0629281835       27.1834307138        3.5717379734
CE2        11.6080370877       24.8077906197        1.9649608677
HE2        10.7742389848       25.3414218352        1.5296126191
CD2        11.7754599734       23.4293144840        1.7270243167
HD2        11.0646961589       22.8988275518        1.1044711243
C          14.9958017652       21.5760694049        0.4190603210
O          16.0136536144       20.9656491349        0.7620471759
N          15.0437538413       22.8000717398       -0.1214941094
H          14.1658185053       23.2462467090       -0.3493435805
CH3        16.2739525644       23.5445754369       -0.3903622054
HH31       16.9195496888       22.9720622539       -1.0596666025
HH32       16.0379214245       24.5011389280       -0.8601491993
HH33       16.8093968735       23.7321736862        0.5424318423
         110
Energy of minimum      3=    -153.3116399     first found at step       76 after                53500 function calls
HH31        3.6613991923        2.0779564532        1.5231614589
CH3         4.2947042311        1.7163546083        0.7144427567
HH32        4.4843512301        0.6521991831        0.8470273369
HH33        3.7961507409        1.8822702243       -0.2393845493
C           5.6041895172        2.4694149180        0.7306966915
O           6.6630988041        1.8620645299        0.8811636839
N           5.5313965155        3.7900238513        0.5768325223
H           4.6141320966        4.2012600596        0.4750724552
CA          6.6783176561        4.7076581803        0.5741251383
HA          7.4823792800        4.2765104648        1.1730174406
CB          7.1884640989        4.8785016538       -0.8688564065
HB2         7.5112999863        3.9068265866       -1.2459777228
HB3         6.3619547597        5.2136123629       -1.4980550063
CG          8.3416265788        5.8576647787       -1.0109909806
CD1         8.1016040754        7.1728296796       -1.4595964122
HD1         7.0997232476        7.4786377790       -1.7360855918
CE1         9.1608161310        8.0983291680       -1.5357483978
HE1         8.9818396364        9.1092212277       -1.8748367636
CZ         10.4661641666        7.7102428573       -1.1660890004
OH         11.4849744947        8.6072338834       -1.2404159869
HH         12.3232864059        8.2119482052       -0.9692913333
CE2        10.7080247778        6.3905767997       -0.7248310921
HE2        11.7080214518        6.0908000756       -0.4425634286
CD2         9.6455586514        5.4679831003       -0.6460910635
HD2         9.8322133588        4.4585774942       -0.2991045043
C           6.3167813531        6.0716885095        1.1901813539
O           5.1743480637        6.5288966227        1.0842129301
N           7.3021190700        6.7381280613        1.7990067707
H           8.2144704520        6.3043016313        1.8334556957
CA          7.2286182877        8.1320797794        2.2491122054
HA          6.5195078758        8.6706617256        1.6180505866
CB          6.7222467273        8.1859551306        3.6993958793
HB2         5.7546736741        7.6846126922        3.7545634001
HB3         7.4131163507        7.6335338436        4.3386425711
CG          6.5595883126        9.5954459031        4.2395018996
CD1         7.5348135491       10.1444373032        5.0964652690
HD1         8.3963836779        9.5556691231        5.3878283407
CE1         7.3957398724       11.4635893809        5.5710140522
HE1         8.1415115639       11.8909301669        6.2271919161
CZ          6.2795621322       12.2385619673        5.1896454343
OH          6.1503244631       13.5115733368        5.6489327209
HH          5.3455068515       13.9276478882        5.3138592174
CE2         5.3020120421       11.6875235661        4.3323250600
HE2         4.4456317794       12.2793700351        4.0389591434
CD2         5.4443609921       10.3680353825        3.8588591789
HD2         4.6942696125        9.9478187818        3.1992959512
C           8.6001410903        8.8177876692        2.1129089670
O           9.6382872960        8.1972472817        2.3626172384
N           8.6095218406       10.0978240170        1.7328861323
H           7.7256608876       10.5583888183        1.5628094494
CA          9.8217605251       10.9016001195        1.5453764028
HA2        10.3505849620       10.9846733570        2.4954265149
HA3        10.4805227623       10.4044846356        0.8325376737
C           9.5319052875       12.3154612180        1.0281268385
O           8.3774100218       12.6774980365        0.7793921858
N          10.5823936612       13.1214103073        0.8630742485
H          11.5021995187       12.7630490857        1.0841714434
CA         10.5062477370       14.5048965961        0.3786286750
HA2         9.8739865287       15.0892412580        1.0480216039
HA3        10.0517890084       14.5173049450       -0.6126508090
C          11.8755284146       15.1895406828        0.2892594981
O          12.9058269727       14.5897423349        0.6123235830
N          11.8875067155       16.4500254065       -0.1505427836
H          11.0021901999       16.8803195862       -0.3809460486
CA         13.0876272879       17.2851167225       -0.2975238817
HA         13.8416673244       16.9563480055        0.4198270084
CB         13.6571321958       17.1044362601       -1.7155036218
HB2        13.8793570838       16.0478325820       -1.8734248778
HB3        12.8934321598       17.3878706702       -2.4419274724
CG         14.9207457718       17.9010713959       -1.9886000728
CD1        16.1536380110       17.4630025563       -1.4661465236
HD1        16.2037723121       16.5474437189       -0.8888234203
CE1        17.3236941142       18.2140357786       -1.6939260601
HE1        18.2732894075       17.8821877886       -1.2971053506
CZ         17.2634933200       19.4081083325       -2.4442327774
OH         18.3964958951       20.1256648496       -2.6674824245
HH         18.2181630073       20.9111931842       -3.2001168445
CE2        16.0276505664       19.8468234799       -2.9679959073
HE2        15.9791228415       20.7604019364       -3.5446481646
CD2        14.8594989919       19.0928441720       -2.7395300073
HD2        13.9125089861       19.4345082857       -3.1399878944
C          12.7825675528       18.7667526890       -0.0092843561
O          11.6655341950       19.2358600076       -0.2495718475
N          13.7773531307       19.5075866266        0.4884337660
H          14.6744857870       19.0642228936        0.6315728863
CA         13.7157472179       20.9537753930        0.7329376835
HA         13.0414854897       21.4070693196        0.0043162122
CB         13.1530634001       21.2104075553        2.1413961323
HB2        12.1898082318       20.7061843889        2.2336900275
HB3        13.8242501982       20.7656027806        2.8781448030
CG         12.9476519830       22.6779445609        2.4720220775
CD1        13.8497976642       23.3482536452        3.3226840518
HD1        14.6890506924       22.8157231709        3.7537653224
CE1        13.6657075920       24.7149607863        3.6110057155
HE1        14.3552559379       25.2348686334        4.2618538123
CZ         12.5776099366       25.4163845240        3.0489015063
OH         12.4043918216       26.7353228022        3.3294558432
HH         11.6253389419       27.0917964928        2.8831389326
CE2        11.6736517314       24.7442108820        2.1972382975
HE2        10.8384054606       25.2792827925        1.7661163838
CD2        11.8604562591       23.3772224393        1.9109421326
HD2        11.1648334471       22.8629452878        1.2582876139
C          15.1021912049       21.6032131177        0.5623974014
O          16.1264728528       20.9793450555        0.8585984636
N          15.1387601831       22.8599422624        0.1018507023
H          14.2560417982       23.3130792086       -0.0914712120
CH3        16.3608519575       23.6351856629       -0.1115373411
HH31       17.0260490618       23.1064987667       -0.7971777661
HH32       16.1165353485       24.6098936142       -0.5378491957
HH33       16.8789051165       23.7853148898        0.8377384278
         110
Energy of minimum      4=    -153.0919694     first found at step       95 after                66831 function calls
HH31        5.3099175435        1.8861229764        2.6857610862
CH3         6.2820121877        1.3978191683        2.6362897672
HH32        6.3145500696        0.5758755051        3.3499569973
HH33        6.4452266716        1.0144165036        1.6301922670
C           7.3619457933        2.4001890783        2.9696128961
O           8.1054331091        2.2090815760        3.9305974380
N           7.4467722435        3.4668595584        2.1771357861
H           6.7811525505        3.5443968713        1.4209717082
CA          8.4127055702        4.5627868010        2.3308502183
HA          8.6954538202        4.6443063705        3.3817748973
CB          9.6766804176        4.2416677651        1.5135925767
HB2        10.1061908392        3.3085979937        1.8817586658
HB3         9.3920132426        4.0799629970        0.4723922094
CG         10.7485528349        5.3164583834        1.5704607624
CD1        10.9164857768        6.2072050048        0.4903185909
HD1        10.2958904608        6.1129120443       -0.3927998727
CE1        11.8866902665        7.2267241881        0.5566966171
HE1        12.0145849855        7.9081445712       -0.2732615141
CZ         12.6936208600        7.3576635953        1.7080262460
OH         13.6373031128        8.3339748538        1.7761344927
HH         13.6611500170        8.8601751571        0.9669307844
CE2        12.5253617311        6.4648809548        2.7883345743
HE2        13.1473693285        6.5693410820        3.6666707417
CD2        11.5538837007        5.4466999311        2.7191213324
HD2        11.4268043396        4.7644273520        3.5512059791
C           7.8098702550        5.9132206662        1.9026075146
O           6.9645793302        5.9687120435        1.0037492323
N           8.2634091305        7.0041402071        2.5272146718
H           8.9732689136        6.8834203732        3.2367308563
CA          7.9270876214        8.3868155541        2.1694689215
HA          7.7374029270        8.4386441824        1.0959386957
CB          6.6486955930        8.8150719030        2.9096577409
HB2         5.8472028387        8.1166895080        2.6638748997
HB3         6.8213915410        8.7475294510        3.9851858642
CG          6.1774649151       10.2169570941        2.5663039011
CD1         6.4141870014       11.2837747329        3.4567419949
HD1         6.9164433478       11.1041305939        4.3997517136
CE1         6.0054522272       12.5890447010        3.1193291649
HE1         6.1862177821       13.4118906575        3.7972624855
CZ          5.3574805371       12.8316060837        1.8892378518
OH          4.9661051670       14.0931063346        1.5673275772
HH          4.5364399362       14.1194555996        0.7025787993
CE2         5.1182922489       11.7620725195        0.9986582588
HE2         4.6212686454       11.9454408010        0.0557563209
CD2         5.5290943196       10.4578106361        1.3386620822
HD2         5.3467579770        9.6389179195        0.6527936048
C           9.0952625866        9.3374611191        2.4901012223
O           9.8231298245        9.1309546965        3.4660425775
N           9.2649749132       10.3905672999        1.6866541069
H           8.6234703108       10.5168297153        0.9152050093
CA         10.2978176472       11.4168228850        1.8624574754
HA2        10.1706899042       11.8923395428        2.8356410063
HA3        11.2832696185       10.9505447278        1.8390801342
C          10.2523571050       12.5053215200        0.7833493922
O           9.4811518098       12.4161511764       -0.1772893376
N          11.0816070927       13.5392067667        0.9375687355
H          11.6887397460       13.5516977137        1.7466424227
CA         11.1800267727       14.6761171185        0.0142996156
HA2        10.2090239330       15.1667926822       -0.0613453427
HA3        11.4547753702       14.3150902524       -0.9774070857
C          12.2148573964       15.7204293629        0.4504154623
O          12.8712854889       15.5676750554        1.4855076343
N          12.3613471122       16.7855565843       -0.3410465937
H          11.7770519477       16.8491058828       -1.1635929242
CA         13.2852514439       17.9018559369       -0.0973236151
HA         13.4496607319       18.0018192842        0.9770411582
CB         14.6366914678       17.5947729464       -0.7670753182
HB2        15.0332098882       16.6670756166       -0.3513351092
HB3        14.4732431440       17.4296970810       -1.8335242184
CG         15.6819854102       18.6821926501       -0.5898750256
CD1        16.3556132277       18.8157670325        0.6404210840
HD1        16.1496053628       18.1241965754        1.4488098513
CE1        17.2954005278       19.8496328204        0.8240609043
HE1        17.8117084392       19.9513068008        1.7688811483
CZ         17.5611018126       20.7566384790       -0.2254385718
OH         18.4671885051       21.7558921675       -0.0559987196
HH         18.8551688375       21.7341487864        0.8281595901
CE2        16.8881939624       20.6199563591       -1.4583705831
HE2        17.0967538771       21.3164066448       -2.2586975486
CD2        15.9511832713       19.5838848807       -1.6397839785
HD2        15.4323039576       19.4878256776       -2.5859581280
C          12.7083355228       19.2356551686       -0.6072625284
O          11.9451404248       19.2602065384       -1.5780388783
N          13.0911233191       20.3459086873        0.0306027840
H          13.7392086702       20.2507282637        0.8005382805
CA         12.7694176869       21.7160774141       -0.3853000149
HA         12.6619609361       21.7399086145       -1.4710645298
CB         11.4328976129       22.1433347570        0.2440642497
HB2        10.6672133974       21.4141057479       -0.0253620669
HB3        11.5303456302       22.1256740884        1.3309485445
CG         10.9508087876       23.5148351615       -0.1936308536
CD1        11.0783258883       24.6220717781        0.6692327266
HD1        11.5119348562       24.4970765543        1.6541888185
CE1        10.6466204246       25.8963873204        0.2512995908
HE1        10.7430038677       26.7498042157        0.9083976023
CZ         10.0855141836       26.0675749254       -1.0323616922
OH          9.6709524005       27.2992807387       -1.4315606514
HH          9.3080450668       27.2766821963       -2.3265378465
CE2         9.9574793540       24.9578348506       -1.8962950022
HE2         9.5269217935       25.0862792662       -2.8801252953
CD2        10.3900810975       23.6846060182       -1.4752504237
HD2        10.2898227174       22.8340980027       -2.1392536034
C          13.9019431822       22.6864794389       -0.0000038919
O          14.5432404800       22.5167743468        1.0422117428
N          14.1405173776       23.7113605409       -0.8278814861
H          13.5539617304       23.7986526025       -1.6464630233
CH3        15.1777446954       24.7226892917       -0.6244961747
HH31       16.1581393099       24.2460226308       -0.5600566937
HH32       15.1820440264       25.4278322539       -1.4576710022
HH33       14.9897273586       25.2709127442        0.3007626310
         110
Energy of minimum      5=    -152.9588522     first found at step        0 after                  645 function calls
HH31        2.2603584223        0.8996314096        0.1891061095
CH3         2.3858810103        1.8213511112       -0.3771514711
HH32        1.5376058100        2.4796993956       -0.1958698616
HH33        2.4468190877        1.5915215741       -1.4398526939
C           3.6566526670        2.5129696583        0.0574856299
O           4.3622058419        2.0137582135        0.9325690727
N           3.9463239105        3.6605545257       -0.5525469937
H           3.2972006170        3.9993662851       -1.2487451835
CA          5.1216760298        4.4961921070       -0.2733359124
HA          5.4350144720        4.3373230178        0.7599183175
CB          6.2756602973        4.0720863592       -1.1991663322