         110
Energy of minimum      1=    -153.4314634     first found at step       59 after                40748 function calls
HH31        2.6881705899        1.7406029072       -4.6728049782
CH3         2.7374148740        2.8283619997       -4.6547411299
HH32        1.8647120681        3.2248869364       -4.1380060512
HH33        2.7602617063        3.2097589642       -5.6744884983
C           3.9885642689        3.2661225419       -3.9300988917
O           4.7603400970        2.4264088775       -3.4696121027
N           4.1874143802        4.5788399708       -3.8290442694
H           3.4890747020        5.1916847230       -4.2260187538
CA          5.3285831739        5.2141107917       -3.1569933329
HA          5.6974436503        4.5494225131       -2.3739184319
CB          6.4607445295        5.4339305731       -4.1775402425
HB2         6.7747869280        4.4653353095       -4.5697096163
HB3         6.0720759649        6.0141894654       -5.0163157885
CG          7.6801787833        6.1434184383       -3.6133027587
CD1         7.8663383412        7.5220042074       -3.8443088047
HD1         7.1582232793        8.0718478241       -4.4525657422
CE1         8.9654662080        8.1926168807       -3.2729267887
HE1         9.1107944800        9.2503615323       -3.4431277091
CZ          9.8853117044        7.4851433979       -2.4700857942
OH         10.9440412653        8.1368550619       -1.9201281250
HH         11.4981531896        7.5371351527       -1.4045514701
CE2         9.7034285021        6.1026612954       -2.2456291350
HE2        10.4081548256        5.5583927081       -1.6318967256
CD2         8.6006863352        5.4352832067       -2.8155233550
HD2         8.4587235875        4.3763517119       -2.6348294184
C           4.9284144678        6.5435240386       -2.4911684083
O           4.0411502276        7.2511705206       -2.9784219009
N           5.6116281632        6.9004229896       -1.3995908410
H           6.3330206884        6.2744979000       -1.0685628339
CA          5.5443375095        8.2143213842       -0.7513333573
HA          5.2886459935        8.9657658797       -1.5003993313
CB          4.4453137704        8.2100441719        0.3232248998
HB2         3.4982527596        7.9310114945       -0.1413227989
HB3         4.6796373475        7.4488298448        1.0693838669
CG          4.2598774558        9.5483940138        1.0155136973
CD1         4.8070832677        9.7673793152        2.2960744180
HD1         5.3477886344        8.9741178182        2.7984352521
CE1         4.6591135482       11.0198123667        2.9245009477
HE1         5.0807524794       11.1868256398        3.9063336833
CZ          3.9609296808       12.0587673220        2.2708963162
OH          3.8148016295       13.2701086790        2.8704961721
HH          4.2343522466       13.2862668278        3.7404498040
CE2         3.4124373247       11.8378267475        0.9893308899
HE2         2.8786468683       12.6370720011        0.4936334852
CD2         3.5627686249       10.5846777889        0.3633740659
HD2         3.1421610790       10.4193291171       -0.6214350983
C           6.9100070022        8.5908352930       -0.1489188070
O           7.6148672287        7.7320881003        0.3904310964
N           7.2803622287        9.8715060772       -0.2244392257
H           6.6510399210       10.5321905239       -0.6599967878
CA          8.5480494928       10.4028169435        0.2868949543
HA2         8.5873923992       10.2655264458        1.3679769072
HA3         9.3780104637        9.8510406298       -0.1557474698
C           8.7429322443       11.8924986998       -0.0187468721
O           7.8978002375       12.5263304683       -0.6588890624
N           9.8617840050       12.4577571493        0.4383943081
H          10.5141112830       11.8825731267        0.9550939337
CA         10.2249166216       13.8669214598        0.2462378300
HA2        10.2786968539       14.0850414660       -0.8209346276
HA3         9.4541991921       14.5028725843        0.6831106633
C          11.5710700376       14.2355779197        0.8815544368
O          12.2370111930       13.3912473160        1.4892422463
N          11.9731825291       15.5008928772        0.7413590766
H          11.3665407295       16.1389944097        0.2445306272
CA         13.2200436988       16.0588363278        1.2828032034
HA         13.5045671936       15.4985539963        2.1752211843
CB         14.3389063289       15.9039942818        0.2371291492
HB2        14.4587274447       14.8448555428        0.0035522387
HB3        14.0354872397       16.4076589181       -0.6824023929
CG         15.6853249024       16.4505048210        0.6787184973
CD1        16.1283936463       17.7048712115        0.2117276236
HD1        15.5218431101       18.2714396409       -0.4845534712
CE1        17.3567360635       18.2309789907        0.6575183391
HE1        17.7005189079       19.1937182867        0.3053669184
CZ         18.1477000306       17.5025639915        1.5715186614
OH         19.3341392124       18.0125761030        1.9963274092
HH         19.7742628184       17.4146563927        2.6139998382
CE2        17.7062215503       16.2434430345        2.0345719826
HE2        18.3119970653       15.6826559415        2.7332486571
CD2        16.4757446047       15.7209452459        1.5887860322
HD2        16.1366433936       14.7570148430        1.9494076869
C          13.0492629018       17.5336213239        1.6923511579
O          12.2478031544       18.2620961618        1.0986709737
N          13.8189220610       17.9795967017        2.6897452660
H          14.4711219719       17.3322989731        3.1110682324
CA         13.9093445171       19.3763046477        3.1311851675
HA         13.7168894077       20.0296991651        2.2785203975
CB         12.8386150101       19.6470355216        4.2013182151
HB2        11.8609142568       19.3792907635        3.7975243596
HB3        13.0235772079       19.0000409284        5.0605695729
CG         12.7762844158       21.0911603456        4.6656599276
CD1        13.3271177909       21.4626870279        5.9089233534
HD1        13.7882144298       20.7154623033        6.5437176867
CE1        13.2848924314       22.8071782205        6.3286280171
HE1        13.7090025460       23.0908555173        7.2822183834
CZ         12.6895807189       23.7856883966        5.5026594392
OH         12.6456872957       25.0849682444        5.9004500544
HH         13.0559758997       25.2027583059        6.7670434094
CE2        12.1378464845       23.4123419570        4.2583466260
HE2        11.6824601733       24.1657555143        3.6302531406
CD2        12.1816444470       22.0672541340        3.8416200454
HD2        11.7562007180       21.7841218458        2.8861053452
C          15.3200887790       19.6936041279        3.6621085135
O          15.9671464574       18.8346955882        4.2702765488
N          15.7931543715       20.9278547737        3.4487683189
H          15.1921012619       21.5833319911        2.9683071787
CH3        17.1100163466       21.4007735503        3.8756020548
HH31       17.8920126421       20.7760175246        3.4389130948
HH32       17.2605583063       22.4323877234        3.5522853969
HH33       17.1889127794       21.3569207019        4.9636510239
         110
Energy of minimum      2=    -153.3086854     first found at step       47 after                32762 function calls
HH31        2.1565462417        1.7203978884       -3.9922478671
CH3         2.2294871383        2.8068608140       -4.0080301598
HH32        1.3804568530        3.2375748526       -3.4793617104
HH33        2.2315296027        3.1576812096       -5.0389477923
C           3.5097485427        3.2377724746       -3.3317451586
O           4.2761801826        2.3949755997       -2.8679770638
N           3.7393564505        4.5481516152       -3.2754678501
H           3.0432746216        5.1644606444       -3.6710419885
CA          4.9124296009        5.1773420518       -2.6545761956
HA          5.2890870179        4.5278185672       -1.8625387172
CB          6.0196170373        5.3420746026       -3.7122272126
HB2         6.3016780376        4.3557015679       -4.0838533994
HB3         5.6197760379        5.9060190841       -4.5568584062
CG          7.2694207646        6.0405712945       -3.2034536418
CD1         7.4783047201        7.4073492189       -3.4805880766
HD1         6.7651025133        7.9547205910       -4.0851196658
CE1         8.6072508656        8.0698722819       -2.9601802039
HE1         8.7702131437        9.1187079114       -3.1658484277
CZ          9.5342099423        7.3659779026       -2.1623910748
OH         10.6217719571        8.0098827744       -1.6617065986
HH         11.1773776765        7.4133736136       -1.1440167571
CE2         9.3293307039        5.9950200909       -1.8918023563
HE2        10.0394206394        5.4534559023       -1.2818714837
CD2         8.1968834246        5.3358527889       -2.4107199149
HD2         8.0375572174        4.2860636400       -2.1946239844
C           4.5597747849        6.5341995282       -2.0178898451
O           3.6743617259        7.2468033056       -2.5012707593
N           5.2811313246        6.9076167161       -0.9568039302
H           5.9980898170        6.2757889526       -0.6273599888
CA          5.2603296550        8.2410779599       -0.3464411954
HA          4.9996178426        8.9757877187       -1.1102328259
CB          4.1923714744        8.2926151166        0.7578036339
HB2         3.2267730320        8.0212195294        0.3282080618
HB3         4.4314307332        7.5485218228        1.5195672882
CG          4.0552885191        9.6544163544        1.4147183426
CD1         4.6431508367        9.8985386770        2.6725127711
HD1         5.1808092587        9.1084921795        3.1831423491
CE1         4.5398704623       11.1717839176        3.2671411559
HE1         4.9926628732       11.3580244633        4.2314864707
CZ          3.8457968089       12.2064341758        2.6024251303
OH          3.7426619090       13.4377319467        3.1694260310
HH          4.1869687226       13.4699932222        4.0265453144
CE2         3.2565775482       11.9603570941        1.3437212718
HE2         2.7261485946       12.7564252902        0.8393786832
CD2         3.3622732884       10.6864161754        0.7515161348
HD2         2.9104652943       10.5017293287       -0.2158825036
C           6.6502603179        8.6046444018        0.2063978537
O           7.3516223273        7.7466015810        0.7513991553
N           7.0455962550        9.8740272214        0.0824606625
H           6.4184372429       10.5354967657       -0.3550207927
CA          8.3383215951       10.3918037629        0.5424089695
HA2         8.4053431942       10.2853282233        1.6256015120
HA3         9.1434344311        9.8090529914        0.0936113629
C           8.5562299639       11.8672267088        0.1871768224
O           7.7070649434       12.5006453364       -0.4480185035
N           9.6993546426       12.4206752615        0.5961788484
H          10.3536000070       11.8465316630        1.1116106216
CA         10.0868968009       13.8152241020        0.3521022073
HA2        10.1152219251       14.0007871461       -0.7221833759
HA3         9.3425375233       14.4805993849        0.7908531387
C          11.4579749779       14.1723871127        0.9388183690
O          12.1226212624       13.3316260906        1.5528311346
N          11.8828462434       15.4238651233        0.7499329167
H          11.2761888845       16.0604291907        0.2511538126
CA         13.1560780737       15.9698115221        1.2399275630
HA         13.4544688877       15.4282533051        2.1393351566
CB         14.2398901658       15.7618193047        0.1676681052
HB2        14.3166087951       14.6959006543       -0.0529356250
HB3        13.9287660454       16.2621281856       -0.7511125477
CG         15.6168621419       16.2647128213        0.5638689545
CD1        16.0989436945       17.4878443312        0.0544414089
HD1        15.4952625878       18.0642350907       -0.6363810824
CE1        17.3646390922       17.9681141407        0.4450997088
HE1        17.7332266879       18.9061651143        0.0530372165
CZ         18.1532287777       17.2227892275        1.3488265256
OH         19.3791114407       17.6753901025        1.7240421511
HH         19.5911374791       18.5157944043        1.2982209569
CE2        17.6700849116       15.9977049518        1.8568971324
HE2        18.2793868961       15.4305000957        2.5470783398
CD2        16.4035233133       15.5207808357        1.4653202957
HD2        16.0357107604       14.5803945938        1.8583216461
C          13.0255411855       17.4583844413        1.6120802289
O          12.2252151308       18.1864540388        1.0163042519
N          13.8219238099       17.9153172391        2.5832368188
H          14.4743748921       17.2693433236        3.0062386412
CA         13.9193625868       19.3167292943        3.0093732766
HA         13.7189353254       19.9616414944        2.1521036662
CB         12.8589432620       19.5979398022        4.0876450145
HB2        11.8776615125       19.3231602895        3.6975179686
HB3        13.0544827033       18.9612737870        4.9522620316
CG         12.7962850001       21.0470802568        4.5362353542
CD1        13.3480734767       21.4325976159        5.7748235783
HD1        13.8099465578       20.6926844156        6.4175578284
CE1        13.3059613048       22.7816942809        6.1794787226
HE1        13.7308636649       23.0761039050        7.1294555423
CZ         12.7097157031       23.7507871848        5.3431575733
OH         12.6659381811       25.0544280742        5.7264151978
HH         13.0769489329       25.1819789461        6.5912827547
CE2        12.1569056758       23.3634236189        4.1036201686
HE2        11.7006989525       24.1096619129        3.4676039549
CD2        12.2005715903       22.0137679384        3.7019413398
HD2        11.7741105334       21.7198680560        2.7501321893
C          15.3343776076       19.6411686051        3.5247052146
O          16.0009800470       18.7800510582        4.1079868290
N          15.7892265683       20.8849274300        3.3272549009
H          15.1728957306       21.5407013089        2.8668078457
CH3        17.0996339323       21.3723358007        3.7577013918
HH31       17.8901278704       20.7542464738        3.3273714176
HH32       17.2411729472       22.4043093580        3.4313826010
HH33       17.1739081239       21.3333569783        4.8462790303
         110
Energy of minimum      3=    -153.1212225     first found at step       68 after                50030 function calls
HH31        1.4986170931        2.8531300531       -3.5944143942
CH3         2.2387050362        3.3280712799       -4.2368208161
HH32        1.7596008658        4.1005653244       -4.8364623015
HH33        2.6844827451        2.5824181254       -4.8934389273
C           3.3188510979        3.9543488540       -3.3864338852
O           3.2636622291        3.8761469503       -2.1600923826
N           4.3033258759        4.5746171988       -4.0336015215
H           4.2611973866        4.5997970844       -5.0414215756
CA          5.4225757943        5.2576675746       -3.3724165188
HA          5.8136921070        4.5975615142       -2.5961348204
CB          6.5489137765        5.4963592469       -4.3930162671
HB2         6.8787007001        4.5331293427       -4.7858602944
HB3         6.1510673447        6.0724775333       -5.2303247568
CG          7.7546438725        6.2255641984       -3.8244134834
CD1         7.9071749395        7.6114989501       -4.0351750583
HD1         7.1832422663        8.1535674048       -4.6316890115
CE1         8.9926250571        8.2993208193       -3.4581109897
HE1         9.1120033887        9.3627065528       -3.6126291903
CZ          9.9324964067        7.6018437098       -2.6698763055
OH         10.9778134795        8.2700758989       -2.1141268402
HH         11.5485463839        7.6757990194       -1.6105228167
CE2         9.7842994369        6.2122488448       -2.4656466517
HE2        10.5042614620        5.6757069754       -1.8628908827
CD2         8.6950922859        5.5275609655       -3.0410207155
HD2         8.5789220506        4.4630796696       -2.8751335671
C           4.9982848511        6.5748524776       -2.6929504974
O           4.1242870474        7.2937254223       -3.1879583427
N           5.6618236741        6.9170384267       -1.5844369217
H           6.3753602160        6.2855343555       -1.2477405332
CA          5.5830322284        8.2218768701       -0.9195178847
HA          5.3310315363        8.9821689503       -1.6607904549
CB          4.4739295716        8.1988865275        0.1443552872
HB2         3.5325038460        7.9224989324       -0.3330549308
HB3         4.7041878462        7.4285515526        0.8823719290
CG          4.2765701189        9.5269798016        0.8529438732
CD1         4.8108150118        9.7306528105        2.1414877066
HD1         5.3499217236        8.9327229363        2.6381348851
CE1         4.6519465162       10.9738389209        2.7854185777
HE1         5.0636576170       11.1291017021        3.7733722227
CZ          3.9558000162       12.0188815465        2.1393936695
OH          3.7992098975       13.2213806622        2.7539674489
HH          4.2104792975       13.2273024525        3.6279945422
CE2         3.4202637821       11.8132752506        0.8498241738
HE2         2.8879598995       12.6171112828        0.3599898420
CD2         3.5814732765       10.5693463708        0.2083799783
HD2         3.1707942847       10.4157820997       -0.7825034088
C           6.9417344877        8.5962952326       -0.3004426943
O           7.6475054357        7.7331414259        0.2307268682
N           7.3053978324        9.8800243383       -0.3531936739
H           6.6756178801       10.5438118008       -0.7833262117
CA          8.5661645810       10.4104888196        0.1757659536
HA2         8.5965806361       10.2602265779        1.2554042894
HA3         9.4024025287        9.8677291752       -0.2661569599
C           8.7571661219       11.9045864729       -0.1101077482
O           7.9136933601       12.5430998404       -0.7477799063
N           9.8708180369       12.4684079168        0.3612798047
H          10.5220511549       11.8893557592        0.8750258511
CA         10.2297263003       13.8811984630        0.1888531871
HA2        10.2892290204       14.1127461591       -0.8751821656
HA3         9.4539099436       14.5087810299        0.6287908924
C          11.5705311859       14.2469791426        0.8370090828
O          12.2358693875       13.3977135148        1.4384496880
N          11.9687503901       15.5153890130        0.7148231587
H          11.3627990398       16.1573029009        0.2220797191
CA         13.2101408722       16.0712263106        1.2708080656
HA         13.4912248922       15.5011090664        2.1580723147
CB         14.3360271087       15.9332927873        0.2303185443
HB2        14.4612503146       14.8775382918       -0.0154285935
HB3        14.0364264774       16.4470602508       -0.6848655398
CG         15.6776335290       16.4792837016        0.6869407879
CD1        16.1188988901       17.7408812386        0.2380734722
HD1        15.5145611547       18.3137015300       -0.4550091725
CE1        17.3424826861       18.2659873010        0.6979106288
HE1        17.6848421620       19.2342137560        0.3596921992
CZ         18.1304837247       17.5293457344        1.6078681007
OH         19.3123552130       18.0384609331        2.0462678529
HH         19.7508713507       17.4346466518        2.6593321553
CE2        17.6908505237       16.2630481630        2.0527504787
HE2        18.2943753937       15.6959775505        2.7482961669
CD2        16.4651191012       15.7415436745        1.5929482657
HD2        16.1273918030       14.7720406762        1.9396521520
C          13.0313177903       17.5402535470        1.6972667550
O          12.2308444013       18.2730048575        1.1075320916
N          13.7931050507       17.9767999531        2.7048240894
H          14.4450893016       17.3267832392        3.1222767048
CA         13.8755683766       19.3683210368        3.1638528678
HA         13.6859551058       20.0313952952        2.3180515468
CB         12.7972262068       19.6220063936        4.2305129016
HB2        11.8230532270       19.3556461741        3.8173848213
HB3        12.9792801994       18.9652220521        5.0829309832
CG         12.7266218274       21.0601000102        4.7120694978
CD1        13.2683440569       21.4183908529        5.9631962308
HD1        13.7282839687       20.6651426519        6.5916794359
CE1        13.2184940531       22.7574791135        6.3990277629
HE1        13.6356201535       23.0310102540        7.3586439518
CZ         12.6246632686       23.7438430619        5.5813765760
OH         12.5734504388       25.0379859058        5.9947333104
HH         12.9779128954       25.1466571436        6.8652480326
CE2        12.0820534349       23.3837421805        4.3291727016
HE2        11.6277576993       24.1431170935        3.7075014114
CD2        12.1334594674       22.0440265401        3.8963216804
HD2        11.7150081081       21.7710584841        2.9347804253
C          15.2818010619       19.6842652442        3.7074032769
O          15.9282942452       18.8203503367        4.3090456835
N          15.7515528500       20.9227641772        3.5121253230
H          15.1510339697       21.5818688093        3.0359779224
CH3        17.0639664139       21.3952472885        3.9529142716
HH31       17.8509858382       20.7787617763        3.5135038576
HH32       17.2126420084       22.4312905198        3.6431816337
HH33       17.1362886088       21.3383576808        5.0408165436
         110
Energy of minimum      4=    -153.0984208     first found at step       12 after                 8384 function calls
HH31        1.6837980228        1.0492804302       -0.8123855687
CH3         1.9984672583        1.9500914036       -1.3372606506
HH32        1.1868401893        2.6761178141       -1.3354766935
HH33        2.2610773489        1.7012354664       -2.3643806179
C           3.2020456998        2.5448004198       -0.6445655831
O           3.6669787850        2.0035626653        0.3572756049
N           3.7040229124        3.6571077151       -1.1772875656
H           3.2438462350        4.0365183557       -1.9928430627
CA          4.8585958401        4.4007776308       -0.6561079900
HA          4.9356180618        4.2320931424        0.4193676209
CB          6.1423651690        3.8735149025       -1.3213827464
HB2         6.2462102051        2.8114887269       -1.0934326153
HB3         6.0418471402        3.9652502840       -2.4043244819
CG          7.4116513518        4.5829737954       -0.8821786514
CD1         8.0069524156        5.5511682888       -1.7167769007
HD1         7.5727109015        5.7754451118       -2.6837630534
CE1         9.1643284775        6.2351680982       -1.2951764026
HE1         9.6199220800        6.9765764342       -1.9372586187
CZ          9.7303882182        5.9509603835       -0.0331763110
OH         10.8516410669        6.6011747457        0.3771551839
HH         11.1662302555        7.2213498487       -0.2926826379
CE2         9.1342439854        4.9809022826        0.8011123083
HE2         9.5732855844        4.7666194822        1.7657910504
CD2         7.9765588467        4.2989757237        0.3768552647
HD2         7.5211010486        3.5561954988        1.0209403331
C           4.7051137172        5.9159888321       -0.8820549290
O           4.0978140647        6.3473627615       -1.8672684721
N           5.2779760837        6.7232123963        0.0158068509
H           5.7788520059        6.2979614109        0.7840335122
CA          5.3709889506        8.1833311935       -0.0950381264
HA          5.4195625722        8.4558927568       -1.1507296050
CB          4.1153792324        8.8283314787        0.5156897063
HB2         3.2330040023        8.4298616848        0.0125262172
HB3         4.0464147066        8.5452918546        1.5674877205
CG          4.0823217551       10.3420348650        0.4023662538
CD1         4.3902271694       11.1447280890        1.5194585043
HD1         4.6327970350       10.6845391889        2.4698198414
CE1         4.3914812541       12.5485409987        1.4013538137
HE1         4.6290285470       13.1695827813        2.2541277917
CZ          4.0839075918       13.1546104547        0.1644600941
OH          4.0877450847       14.5096637292        0.0549173962
HH          3.8605897700       14.7919828262       -0.8405120027
CE2         3.7730237756       12.3500567076       -0.9537034283
HE2         3.5363131314       12.8122942198       -1.9024000177
CD2         3.7734558128       10.9462092864       -0.8325728798
HD2         3.5369873529       10.3306108499       -1.6924383307
C           6.6480675142        8.7064247798        0.5880492632
O           7.0913797661        8.1525965993        1.5988143139
N           7.2294197383        9.7839140711        0.0547499811
H           6.8071780878       10.2051529117       -0.7618736018
CA          8.4258592988       10.4394161260        0.5930065429
HA2         8.2267229589       10.7706553995        1.6128050441
HA3         9.2503293944        9.7263768278        0.6230278387
C           8.8672492416       11.6543032827       -0.2319747472
O           8.3070851944       11.9377589629       -1.2956496723
N           9.8767948435       12.3773637022        0.2562456077
H          10.2929820222       12.0911768640        1.1327450028
CA         10.4351980177       13.5731756640       -0.3863252721
HA2        10.8062881951       13.3120624194       -1.3780013089
HA3         9.6502907679       14.3209622410       -0.5049307903
C          11.5855578443       14.2039753825        0.4076666778
O          11.9624191615       13.7116607020        1.4759599145
N          12.1453941239       15.2974611140       -0.1150557435
H          11.7722837264       15.6514026929       -0.9854217925
CA         13.2469330485       16.0579620208        0.4910579360
HA         13.2114992051       15.9360849742        1.5751117707
CB         14.5875372112       15.4962393546       -0.0153997993
HB2        14.6518940765       14.4409484368        0.2546161675
HB3        14.6063118450       15.5549922704       -1.1051128588
CG         15.8104574355       16.2060087430        0.5388673176
CD1        16.4983085878       17.1517080151       -0.2487487640
HD1        16.1727321172       17.3560878502       -1.2616352600
CE1        17.6051057104       17.8423797578        0.2825863862
HE1        18.1348630284       18.5709545803       -0.3154107777
CZ         18.0291299089       17.5878481972        1.6043378138
OH         19.0999656484       18.2541802537        2.1118068526
HH         19.2849264483       17.9846284156        3.0205800411
CE2        17.3433679237       16.6362085535        2.3909881860
HE2        17.6681640529       16.4380688992        3.4033342478
CD2        16.2349232289       15.9487604649        1.8575394623
HD2        15.7071660111       15.2228088355        2.4647195957
C          13.1302471223       17.5631383570        0.1865700579
O          12.6077843487       17.9536207277       -0.8622524249
N          13.6378448741       18.4064043041        1.0906221130
H          14.0741970843       18.0130685266        1.9132744181
CA         13.7532019516       19.8598434290        0.9231495861
HA         13.8756772803       20.0848344643       -0.1376890606
CB         12.4642369935       20.5376357973        1.4172272987
HB2        11.6132153204       20.1036504463        0.8899185958
HB3        12.3334812703       20.3210801254        2.4788924177
CG         12.4324938869       22.0405819916        1.2047650599
CD1        12.6549986503       22.9164728800        2.2866430517
HD1        12.8390477566       22.5194978716        3.2778321762
CE1        12.6440227707       24.3106969292        2.0826576840
HE1        12.8160889112       24.9813793789        2.9134736288
CZ         12.4096569311       24.8329783918        0.7917678796
OH         12.3982578505       26.1769403082        0.5870035777
HH         12.5632354600       26.6602432170        1.4070012289
CE2        12.1863853538       23.9549764385       -0.2905329372
HE2        12.0066020362       24.3605186276       -1.2768001124
CD2        12.1979736297       22.5615102753       -0.0832690522
HD2        12.0252189648       21.8904754717       -0.9163604891
C          14.9879922677       20.4015918527        1.6678399673
O          15.3451005974       19.8959409677        2.7369823770
N          15.6320210753       21.4377210249        1.1161664134
H          15.2615829028       21.8144691464        0.2544272096
CH3        16.8227131680       22.0741708670        1.6793264323
HH31       17.6226950592       21.3393164956        1.7913674087
HH32       17.1672431992       22.8735486967        1.0207533609
HH33       16.5926468849       22.4983665613        2.6586763111
         110
Energy of minimum      5=    -153.0819266     first found at step        5 after                 3826 function calls
HH31        1.1733261359        2.1235267196       -3.2919013001
CH3         1.3492773706        3.1916189728       -3.4110267978
HH32        0.6096795646        3.7496120715       -2.8387549149
HH33        1.2715804997        3.4592350248       -4.4637441540
C           2.7321341803        3.5355076092       -2.9094753731
O           3.4595297124        2.6547198610       -2.4535178626
N           3.0927534378        4.8145622335       -2.9929817381
H           2.4203550074        5.4686564431       -3.3683316359
CA          4.3825852748        5.3624152418       -2.5526500294
HA          4.7800510229        4.7383508795       -1.7504036204
CB          5.3749222899        5.3282635898       -3.7285791296