         220
Energy of minimum      1=    -322.9116971     first found at step       14 after                45346 function calls
HH31       -6.2371478257      -16.3723066359       -2.7613160931
CH3        -7.1332978472      -15.8478874293       -3.0895972812
HH32       -7.0856902914      -15.6854864441       -4.1653366829
HH33       -8.0132152573      -16.4425755346       -2.8486369866
C          -7.2164675243      -14.5135234707       -2.3862704580
O          -8.1848346271      -14.2505519440       -1.6749999285
N          -6.2029582176      -13.6732708527       -2.5856556273
H          -5.4584458899      -13.9725516125       -3.1996375620
CA         -6.0918232353      -12.3270721099       -2.0086945288
HA         -7.0929385649      -11.9330369694       -1.8254481466
CB         -5.3513867850      -12.4118141319       -0.6610126151
HB2        -5.9268594555      -13.0426759346        0.0182828011
HB3        -4.3868766588      -12.8979437496       -0.8181891644
CG         -5.1201229106      -11.0679897852        0.0093972176
CD1        -3.8623707087      -10.4373849991       -0.0851815073
HD1        -3.0478085353      -10.9245782458       -0.6075225507
CE1        -3.6644768457       -9.1651427230        0.4862714552
HE1        -2.7035697616       -8.6750515500        0.4131235912
CZ         -4.7243473081       -8.5196860695        1.1580375946
OH         -4.5289266119       -7.2915387299        1.7071100696
HH         -5.3278051402       -6.9691178728        2.1432415062
CE2        -5.9815971085       -9.1550208041        1.2600634674
HE2        -6.7946610109       -8.6626876832        1.7758669250
CD2        -6.1776021894      -10.4262247684        0.6840198645
HD2        -7.1455715781      -10.9078157198        0.7563530326
C          -5.3752648398      -11.3559248030       -2.9648395406
O          -4.4975737687      -11.7604497743       -3.7338867990
N          -5.7222645462      -10.0678163234       -2.8869851824
H          -6.4399850086       -9.8115626194       -2.2229204540
CA         -5.0145211440       -8.9602626096       -3.5377370916
HA         -3.9645269715       -9.2330063327       -3.6572107325
CB         -5.6095800195       -8.7082274063       -4.9323546044
HB2        -5.5511928497       -9.6300788582       -5.5131887939
HB3        -6.6658639279       -8.4541513577       -4.8283608873
CG         -4.9053639977       -7.6103642747       -5.7092977330
CD1        -5.4725599942       -6.3225571754       -5.7911356435
HD1        -6.4233193006       -6.1156901553       -5.3146017278
CE1        -4.8009055631       -5.2981155882       -6.4869041393
HE1        -5.2300499107       -4.3076628117       -6.5515659344
CZ         -3.5586062861       -5.5588356700       -7.1038116517
OH         -2.9134414348       -4.5667769208       -7.7729577513
HH         -2.0786031060       -4.8778578447       -8.1462562162
CE2        -2.9915584706       -6.8496306664       -7.0228867039
HE2        -2.0398176065       -7.0518855838       -7.4951191853
CD2        -3.6655135595       -7.8719339273       -6.3256323462
HD2        -3.2275995826       -8.8611289146       -6.2627478151
C          -5.0786997579       -7.6917637976       -2.6679700722
O          -6.1055627758       -7.4135193630       -2.0408384915
N          -3.9934076664       -6.9144337444       -2.6385437633
H          -3.1901331607       -7.1840380703       -3.1901812547
CA         -3.8763242659       -5.6777474245       -1.8591938695
HA2        -4.6118257890       -4.9555508885       -2.2150573611
HA3        -4.0872391341       -5.8883578030       -0.8101903826
C          -2.4861422685       -5.0379706545       -1.9519229926
O          -1.5847129631       -5.5677754903       -2.6095565431
N          -2.3072396584       -3.8931939709       -1.2905493045
H          -3.0856397687       -3.5128465145       -0.7684869517
CA         -1.0509747673       -3.1353104754       -1.2565126020
HA2        -0.2607554434       -3.7639972605       -0.8443799448
HA3        -0.7671936865       -2.8558448990       -2.2717764739
C          -1.1420167039       -1.8593541984       -0.4116537450
O          -2.2097397772       -1.5261389130        0.1139201771
N          -0.0230270519       -1.1381330716       -0.2954122260
H           0.7977949908       -1.4521768999       -0.7933803019
CA          0.1125096602        0.0771226829        0.5201707099
HA         -0.8696450810        0.3447238461        0.9015131775
CB          1.0092267384       -0.1962807603        1.7373740239
HB2         1.9906851045       -0.5227639968        1.3906438488
HB3         1.1523749843        0.7376395229        2.2830077885
CG          0.4504545565       -1.2217756937        2.7067369320
CD1        -0.5108615110       -0.8337731502        3.6608446421
HD1        -0.8454519896        0.1941773012        3.7002119217
CE1        -1.0391263175       -1.7811614123        4.5601170279
HE1        -1.7752180986       -1.4841008607        5.2934583509
CZ         -0.6058440514       -3.1239756234        4.5035641043
OH         -1.1110235617       -4.0450278680        5.3665832082
HH         -1.7575836613       -3.6515912784        5.9664471153
CE2         0.3581187135       -3.5114109320        3.5483722988
HE2         0.6868997171       -4.5408523212        3.5109760589
CD2         0.8859565002       -2.5608624478        2.6527322181
HD2         1.6256762582       -2.8619160540        1.9211291735
C           0.6243647690        1.2840977495       -0.2839936573
O           1.3133058640        1.1313634616       -1.2961171170
N           0.2862258873        2.4876283625        0.1817895420
H          -0.2820803641        2.5181497778        1.0241898914
CA          0.6323730705        3.7804064353       -0.4141234710
HA          1.5345414322        3.6637651183       -1.0135330284
CB         -0.5077172074        4.2188629715       -1.3478365377
HB2        -0.6853497505        3.4301409516       -2.0805106240
HB3        -1.4202569200        4.3331958218       -0.7607220858
CG         -0.2310441885        5.5054721038       -2.1033340425
CD1        -0.9409608423        6.6822396731       -1.7908772415
HD1        -1.7076082800        6.6679114019       -1.0254998647
CE1        -0.6503096407        7.8841190027       -2.4664041077
HE1        -1.1942146614        8.7869702209       -2.2242605147
CZ          0.3543797460        7.9109674128       -3.4582515953
OH          0.6424784071        9.0672785360       -4.1122982583
HH          0.0865746941        9.7948970404       -3.8048623453
CE2         1.0626739265        6.7315045667       -3.7706403423
HE2         1.8316220412        6.7576013707       -4.5299652146
CD2         0.7693977967        5.5321430062       -3.0938896816
HD2         1.3177227682        4.6308254727       -3.3336531636
C           0.9214262180        4.8422274799        0.6670017741
O           0.4677845262        4.7235013017        1.8099113396
N           1.6765883847        5.8852246852        0.3001152898
H           1.9749071132        5.9250313225       -0.6654764297
CH3         2.0757838499        6.9812156890        1.1810263086
HH31        2.7299097100        7.6719448544        0.6461653491
HH32        1.1933739876        7.5241681938        1.5248125816
HH33        2.6090420933        6.5877566217        2.0488395054
HH31       -3.2580094227        1.8280595328       -2.6501121200
CH3        -3.1219159142        1.1455854750       -1.8124277779
HH32       -2.0670620106        0.9014687877       -1.7086188377
HH33       -3.6900077639        0.2336131625       -1.9900221756
C          -3.6127608630        1.8010116354       -0.5428467051
O          -3.9908891010        2.9706505364       -0.5610839500
N          -3.6079161998        1.0526198002        0.5580629853
H          -3.2541782930        0.1049446782        0.4847942914
CA         -3.9780848833        1.5481762629        1.8916126708
HA         -4.8492169193        2.1969987127        1.7870260183
CB         -4.3819076720        0.3576661205        2.7748726637
HB2        -5.0891052279       -0.2644114228        2.2234298411
HB3        -3.5002307243       -0.2531856973        2.9760196328
CG         -5.0333331671        0.7542363068        4.0873076937
CD1        -4.2765032569        0.7917812529        5.2750312224
HD1        -3.2257417258        0.5347861511        5.2568017644
CE1        -4.8776518146        1.1831167224        6.4873619498
HE1        -4.2917565347        1.2170466131        7.3956187338
CZ         -6.2439695906        1.5375940331        6.5146915615
OH         -6.8312938922        1.9177009776        7.6803095428
HH         -6.2034335547        1.8996207367        8.4140957218
CE2        -7.0019282019        1.4997381217        5.3247480401
HE2        -8.0479177229        1.7729982017        5.3508863179
CD2        -6.3965483528        1.1094723778        4.1138746790
HD2        -6.9818786634        1.0833538789        3.2023493382
C          -2.8456817296        2.3805578545        2.5246998970
O          -1.6757637957        2.1910722220        2.1909835552
N          -3.1577702439        3.2908072861        3.4522233900
H          -4.1213701870        3.3874549399        3.7357957189
CA         -2.1476969295        4.1415588610        4.0975578943
HA         -1.6102323502        4.6778998337        3.3151376105
CB         -2.8389103155        5.1912315788        4.9788625612
HB2        -3.5532099339        5.7473845353        4.3694864527
HB3        -3.4020681971        4.6860958388        5.7655087927
CG         -1.8748021041        6.1807113424        5.6080014288
CD1        -1.4537374781        6.0111556704        6.9423471049
HD1        -1.8275387688        5.1788955065        7.5268781635
CE1        -0.5410168170        6.9176293433        7.5175456780
HE1        -0.2180193651        6.7854637513        8.5411843613
CZ         -0.0453437072        7.9983114122        6.7555198269
OH          0.8365779523        8.8762555784        7.3030232633
HH          1.0402021533        8.6470459408        8.2190331495
CE2        -0.4672235811        8.1667898517        5.4192787019
HE2        -0.0831875533        8.9951087773        4.8399124040
CD2        -1.3798423845        7.2586108950        4.8473992958
HD2        -1.6978194100        7.3882146712        3.8199275841
C          -1.1206771922        3.3128586201        4.8965713440
O          -1.4801673189        2.5943354717        5.8344954387
N           0.1613984116        3.4069040464        4.5313810251
H           0.3923446921        3.9885875850        3.7307958704
CA          1.2485918685        2.6432935841        5.1553336707
HA2         1.3059834698        2.8894860524        6.2159351119
HA3         1.0276612204        1.5787076207        5.0688171705
C           2.6223871501        2.9060673275        4.5293588375
O           2.8424787139        3.9396017044        3.8928680396
N           3.5576224871        1.9681683124        4.7097636918
H           3.3143693961        1.1468988039        5.2451237947
CA          4.9086637685        2.0378458409        4.1372780846
HA2         5.3895515000        2.9602247780        4.4657789846
HA3         5.5052021929        1.2013041625        4.5014584726
C           4.9019193086        1.9911307072        2.6038809924
O           4.2332828648        1.1445400130        2.0048078812
N           5.6310802602        2.9101353783        1.9664230925
H           6.1704966180        3.5597117492        2.5221166385
CA          5.6580524683        3.1013025156        0.5108802563
HA          5.5819732866        2.1301949561        0.0185592685
CB          4.4410341072        3.9541974990        0.1129705737
HB2         3.5351206667        3.4247801632        0.4091540320
HB3         4.4709526052        4.8890952093        0.6750920022
CG          4.3390248457        4.2722921193       -1.3669818876
CD1         4.6139041274        5.5744271141       -1.8306362520
HD1         4.8802485171        6.3579377774       -1.1317575274
CE1         4.5598857238        5.8579781163       -3.2089580884
HE1         4.7735644587        6.8534176133       -3.5721771122
CZ          4.2310952949        4.8392400966       -4.1283281254
OH          4.1784468128        5.1183470023       -5.4576350527
HH          3.9493120119        4.3362758609       -5.9751382532
CE2         3.9449709700        3.5375133286       -3.6616371637
HE2         3.6879197556        2.7563010529       -4.3637315013
CD2         3.9983286745        3.2571001882       -2.2822077376
HD2         3.7795449368        2.2570939193       -1.9276550182
C           6.9666775494        3.7680118241        0.0472242162
O           7.5919344651        4.5182395285        0.8032922375
N           7.3662343548        3.5168892157       -1.2032030497
H           6.7895906878        2.9137478173       -1.7738952932
CA          8.4936761396        4.1696972372       -1.8788395451
HA          8.6081047131        5.1791284473       -1.4801073059
CB          9.7865949472        3.3868510688       -1.5955519004
HB2         9.9174258962        3.3007298832       -0.5157023797
HB3         9.6837405260        2.3752812865       -1.9921187786
CG         11.0373563186        4.0261102748       -2.1716756143
CD1        11.6254158018        3.5081116448       -3.3434283414
HD1        11.1920705295        2.6436052701       -3.8320442611
CE1        12.7753557707        4.1150767262       -3.8864119891
HE1        13.2246798845        3.7171995251       -4.7861171989
CZ         13.3409535954        5.2450955381       -3.2561217583
OH         14.4499350224        5.8365493054       -3.7744261418
HH         14.7497112200        5.3849149033       -4.5740150319
CE2        12.7515923889        5.7624511005       -2.0826188807
HE2        13.1894516850        6.6275605080       -1.6037019023
CD2        11.6019132896        5.1532767923       -1.5422551752
HD2        11.1526291755        5.5526404422       -0.6407005812
C           8.2335208436        4.2845215838       -3.3926650492
O           7.6329517058        3.3876301027       -3.9934843848
N           8.6968934721        5.3762701649       -4.0139819693
H           9.2029394918        6.0522994000       -3.4584998209
CH3         8.5339741981        5.6550540949       -5.4407538233
HH31        7.4730602885        5.6803634998       -5.6984268024
HH32        8.9803177912        6.6201405420       -5.6873054251
HH33        9.0230968257        4.8785846002       -6.0322207557
         220
Energy of minimum      2=    -322.8988598     first found at step        6 after                23369 function calls
HH31       -7.9478264179      -15.4904226368       -3.2701664242
CH3        -8.8087914169      -14.8689159032       -3.5116984221
HH32       -8.8116103487      -14.6508552824       -4.5786087532
HH33       -9.7246062941      -15.3937891347       -3.2438152507
C          -8.7227098670      -13.5745023973       -2.7376206403
O          -9.6168569431      -13.2652438564       -1.9517098375
N          -7.6484443576      -12.8199841768       -2.9604107667
H          -6.9742433729      -13.1504899608       -3.6364740542
CA         -7.3758523590      -11.5243257680       -2.3244479860
HA         -8.3222936374      -11.0518853679       -2.0558901344
CB         -6.5660411415      -11.7522641475       -1.0345186204
HB2        -7.1559942164      -12.3657559477       -0.3517439668
HB3        -5.6630174944      -12.3143070749       -1.2793911729
CG         -6.1687429084      -10.4752212197       -0.3133201544
CD1        -4.8652492602       -9.9571250255       -0.4583447324
HD1        -4.1335866230      -10.4858026394       -1.0574100960
CE1        -4.5138223528       -8.7427321267        0.1630041764
HE1        -3.5172248869       -8.3386277575        0.0517861558
CZ         -5.4651890785       -8.0429649138        0.9352945927
OH         -5.1217328390       -6.8709539258        1.5323182353
HH         -5.8585199728       -6.5027594435        2.0362455520
CE2        -6.7681995944       -8.5661861445        1.0873953911
HE2        -7.4982713554       -8.0321957752        1.6801585315
CD2        -7.1179303677       -9.7794559556        0.4614013916
HD2        -8.1207771747      -10.1744558077        0.5727571764
C          -6.6303745152      -10.5697984003       -3.2751932977
O          -5.8431689489      -11.0082700000       -4.1198595660
N          -6.8489247452       -9.2619579693       -3.1094226347
H          -7.4976919559       -8.9795345051       -2.3875501696
CA         -6.0807614668       -8.1883037767       -3.7483590188
HA         -5.0705756801       -8.5483338492       -3.9509742037
CB         -6.7336984859       -7.8041765322       -5.0857382744
HB2        -6.7992798301       -8.6931960517       -5.7149711273
HB3        -7.7525908259       -7.4605159108       -4.8990246278
CG         -5.9773694915       -6.7334797961       -5.8515240780
CD1        -6.4216979452       -5.3958499780       -5.8279760706
HD1        -7.3158200812       -5.1303150994       -5.2766048975
CE1        -5.7016840400       -4.3984455185       -6.5151192245
HE1        -6.0429679959       -3.3724004233       -6.4949415640
CZ         -4.5321173887       -4.7386232597       -7.2295903252
OH         -3.8316833817       -3.7817087150       -7.8943459088
HH         -4.2423027202       -2.9127111537       -7.7980074811
CE2        -4.0889966935       -6.0784504096       -7.2534161461
HE2        -3.1927549859       -6.3331292325       -7.8023392758
CD2        -4.8107414618       -7.0732413230       -6.5647380408
HD2        -4.4664016048       -8.1004530412       -6.5835005445
C          -5.9714813851       -6.9709613179       -2.8125583706
O          -6.9286396175       -6.6341795388       -2.1085783698
N          -4.8160844957       -6.3016264647       -2.8114490357
H          -4.0757347528       -6.6133809091       -3.4253997988
CA         -4.5344307145       -5.1291439508       -1.9768830339
HA2        -5.2100971398       -4.3187991532       -2.2524955620
HA3        -4.7116963633       -5.3777634716       -0.9299786695
C          -3.0930849255       -4.6251285470       -2.1146797139
O          -2.2871829314       -5.1974956324       -2.8553846038
N          -2.7627352597       -3.5491104809       -1.3984458981
H          -3.4689662488       -3.1285294040       -0.8089818577
CA         -1.4352991568       -2.9232899139       -1.3943396269
HA2        -0.6927019116       -3.6532487360       -1.0698977572
HA3        -1.1795941003       -2.6061080097       -2.4059714894
C          -1.3490285825       -1.7039071949       -0.4692421261
O          -2.3471641394       -1.3017985921        0.1384813516
N          -0.1569332978       -1.1072075255       -0.3761484701
H           0.5994032918       -1.4674966590       -0.9404993961
CA          0.1466741198        0.0310396273        0.5028342065
HA         -0.7808270325        0.3688635630        0.9581135088
CB          1.0741596867       -0.4113506504        1.6449823752
HB2         1.9967554895       -0.8098588709        1.2206219991
HB3         1.3418578608        0.4649332376        2.2373327240
CG          0.4651861284       -1.4389204005        2.5813516147
CD1        -0.3984330451       -1.0221159105        3.6135492327
HD1        -0.6224886081        0.0290645151        3.7360254616
CE1        -0.9727653697       -1.9704702747        4.4830698696
HE1        -1.6338904449       -1.6515407536        5.2762042473
CZ         -0.6841142833       -3.3429075106        4.3182088339
OH         -1.2347119103       -4.2649705076        5.1518673680
HH         -1.8041112150       -3.8503070763        5.8125525407
CE2         0.1821258446       -3.7593408878        3.2848006773
HE2         0.4003705725       -4.8115550278        3.1645535269
CD2         0.7565605119       -2.8080503509        2.4191228274
HD2         1.4209885496       -3.1314234480        1.6272728118
C           0.7366331832        1.2323237440       -0.2550154625
O           1.3508981373        1.0800908418       -1.3141963368
N           0.5500465355        2.4295167077        0.3032791405
H           0.0338734680        2.4598184672        1.1786018631
CA          0.9955103059        3.7184860062       -0.2318146712
HA          1.8474461800        3.5530878508       -0.8903393248
CB         -0.1414879523        4.3301069144       -1.0666937912
HB2        -0.4385826559        3.6140365428       -1.8344336186
HB3        -1.0046168787        4.4950813632       -0.4199356131
CG          0.2258105620        5.6305914826       -1.7569970344
CD1        -0.3409860794        6.8485723188       -1.3307842849
HD1        -1.0629492879        6.8593085318       -0.5230653233
CE1         0.0357177756        8.0581732980       -1.9474596862
HE1        -0.3982543587        8.9924066605       -1.6180921969
CZ          0.9832831612        8.0513663309       -2.9943392015
OH          1.3538926719        9.2145396432       -3.5922601462
HH          0.8934016336        9.9716210051       -3.2078770209
CE2         1.5481931495        6.8308667711       -3.4205521472
HE2         2.2739861788        6.8311789140       -4.2216522097
CD2         1.1692103313        5.6239449891       -2.8023432969
HD2         1.6078675309        4.6906358786       -3.1295045245
C           1.4501098976        4.6711529983        0.8931796504
O           1.0483853151        4.5216910680        2.0518030271
N           2.2882881875        5.6559904280        0.5463783584
H           2.5370690318        5.7306689797       -0.4311064747
CH3         2.8451160440        6.6450508404        1.4673887905
HH31        3.5375743664        7.3015254063        0.9376658049
HH32        2.0431807866        7.2489049874        1.8962168934
HH33        3.3804973815        6.1429794927        2.2758228915
HH31       -3.1896230106        2.3184328191       -2.3457194653
CH3        -3.0801832598        1.5709743206       -1.5612861409
HH32       -2.0521558277        1.2165485011       -1.5361752761
HH33       -3.7481158659        0.7341645699       -1.7602190102
C          -3.4321365151        2.1851104835       -0.2266274070
O          -3.6879428565        3.3851461395       -0.1501757948
N          -3.4456962285        1.3675947379        0.8238957964
H          -3.1961137024        0.3964953500        0.6713770257
CA         -3.6908140264        1.8067102868        2.2052180991
HA         -4.4946356794        2.5446177490        2.1932505653
CB         -4.1675490319        0.6056243046        3.0362723841
HB2        -4.9636788246        0.0955615472        2.4911016882
HB3        -3.3441569291       -0.1021208118        3.1461663746
CG         -4.7033897223        0.9759072294        4.4073571977
CD1        -3.8842490063        0.8579882128        5.5475287055
HD1        -2.8681091754        0.4995018750        5.4504486898
CE1        -4.3760513064        1.2247970157        6.8155390379
HE1        -3.7420162169        1.1390933480        7.6873243230
CZ         -5.6950615092        1.7108540653        6.9466334142
OH         -6.1767935437        2.0682811371        8.1665826618
HH         -5.5157843437        1.9385001597        8.8588265859
CE2        -6.5154742806        1.8287272423        5.8042986235
HE2        -7.5247729321        2.2023550337        5.9099720175
CD2        -6.0192805704        1.4624613451        4.5375517741
HD2        -6.6521236154        1.5560842083        3.6629571657
C          -2.4462584225        2.4776975104        2.8191007748
O          -1.3217101753        2.1955034291        2.4046898573
N          -2.6125889259        3.3500595299        3.8178856393
H          -3.5444904417        3.5229106835        4.1642393029
CA         -1.4869773290        4.0506564132        4.4524296287
HA         -0.9396537259        4.5821943728        3.6735738819
CB         -2.0179330234        5.1023025194        5.4365096991
HB2        -2.7025702847        5.7665407411        4.9064826422
HB3        -2.5873258826        4.6040182578        6.2230373864
CG         -0.9245153818        5.9462883226        6.0662052782
CD1        -0.4523885719        5.6462935658        7.3598909107
HD1        -0.8783026481        4.8179817287        7.9135673893
CE1         0.5785322165        6.4166190740        7.9338315469
HE1         0.9404862281        6.1844047502        8.9261506382
CZ          1.1416422235        7.4913520826        7.2112632696
OH          2.1375444483        8.2382848134        7.7577080140
HH          2.3651540829        7.9288561861        8.6440047403
CE2         0.6684927659        7.7904862661        5.9156721828
HE2         1.1044420327        8.6135192056        5.3662849734
CD2        -0.3623251394        7.0182344361        5.3449273412
HD2        -0.7197621676        7.2476638555        4.3483304693
C          -0.5097355960        3.0719522310        5.1358560453
O          -0.8907891545        2.3313488338        6.0477302638
N           0.7538117165        3.0622152593        4.7007937769
H           1.0004112023        3.6705254630        3.9250522569
CA          1.7881847964        2.1539391586        5.2102189513
HA2         1.9273724903        2.3213478006        6.2785733565
HA3         1.4542116987        1.1248772853        5.0718996528
C           3.1462826607        2.3200909187        4.5201673442
O           3.4374980767        3.3669891388        3.9362561394
N           3.9880154143        1.2837522416        4.5861455287
H           3.6902936674        0.4566821760        5.0837226862
CA          5.3064330847        1.2568689358        3.9388747810
HA2         5.8968621639        2.1026275574        4.2938883225
HA3         5.8320671462        0.3425275838        4.2145126574
C           5.2128154636        1.3141675665        2.4086826225
O           4.4291750031        0.5805901744        1.8000355270
N           5.9978487784        2.1966672203        1.7861757741
H           6.6304700813        2.7504505663        2.3472722070
CA          5.9664739757        2.4815195129        0.3461229333
HA          5.7642345545        1.5580934829       -0.1994058444
CB          4.8245338756        3.4762247088        0.0751428084
HB2         3.8859363305        3.0210271565        0.3921857133
HB3         4.9809331921        4.3636242429        0.6907487832
CG          4.6768434282        3.9015469377       -1.3736969609
CD1         5.0595305748        5.1979978210       -1.7722631735
HD1         5.4424062564        5.9023763364       -1.0438972006
CE1         4.9613866190        5.5774178454       -3.1248527666
HE1         5.2569903884        6.5687469642       -3.4384950089
CZ          4.4803968329        4.6605383663       -4.0835772849
OH          4.3857814530        5.0321178961       -5.3876884607
HH          4.0497533807        4.3132720350       -5.9375009723
CE2         4.0867445331        3.3654095425       -3.6812847261
HE2         3.7131740437        2.6625994523       -4.4132736541
CD2         4.1846124755        2.9890970409       -2.3273590222
HD2         3.8830084783        1.9943222730       -2.0223260320
C           7.3102703186        3.0441408716       -0.1535235915
O           8.0492575248        3.6758500830        0.6082297507
N           7.6142387743        2.8390027319       -1.4387464861
H           6.9486514340        2.3360239740       -2.0097046854
CA          8.7653200692        3.4200834524       -2.1395500876
HA          9.0046293315        4.3840080093       -1.6872083468
CB          9.9837130468        2.4950105346       -1.9830300071
HB2        10.1625514617        2.3239435321       -0.9203157847
HB3         9.7557912611        1.5276624985       -2.4340369583
CG         11.2612039669        3.0436562647       -2.5929314960
CD1        11.7290295197        2.5494829790       -3.8274650156
HD1        11.1831426793        1.7672462922       -4.3412923482
CE1        12.9048198248        3.0738926366       -4.4002749956
HE1        13.2618249177        2.6945295992       -5.3480613867
CZ         13.6170805326        4.0970213939       -3.7369490897
OH         14.7519084368        4.6084573510       -4.2836626160
HH         14.9601845677        4.1839087939       -5.1260173461
CE2        13.1479894443        4.5905684806       -2.5006330443
HE2        13.6979034857        5.3736045511       -1.9967029844
CD2        11.9720897708        4.0641153696       -1.9305843883
HD2        11.6153773318        4.4448248122       -0.9808661786
C           8.4377774389        3.6616910550       -3.6251057744
O           7.7164038033        2.8715498396       -4.2426635904
N           8.9776169682        4.7410413040       -4.2049682122
H           9.5798512370        5.3243924769       -3.6404561670
CH3         8.7682689007        5.1298694372       -5.5995747384
HH31        7.7033941389        5.2780819496       -5.7910137122
HH32        9.2981491860        6.0600105508       -5.8128035154
HH33        9.1421464415        4.3499839362       -6.2658879953
         220
Energy of minimum      3=    -322.5671731     first found at step       13 after                43951 function calls
HH31       -8.5175400323      -15.4668405756       -3.5496760353
CH3        -9.2505016338      -14.7380895893       -3.8925419741
HH32       -9.0504018349      -14.4830297556       -4.9321377934
HH33      -10.2513942526      -15.1583947362       -3.8057791433
C          -9.1498293268      -13.4920940926       -3.0443296870
O         -10.1221735176      -13.1061016804       -2.3975407275
N          -7.9754017464      -12.8646356572       -3.0483231038
H          -7.2393188343      -13.2491774474       -3.6237804048
CA         -7.6686594902      -11.6346150767       -2.3062652844
HA         -8.5880576750      -11.0633665541       -2.1669174449
CB         -7.1147735730      -12.0052548612       -0.9189701047
HB2        -7.8670064228      -12.5867452174       -0.3835680656
HB3        -6.2401300528      -12.6453232185       -1.0477878376
CG         -6.7308728537      -10.8131821764       -0.0593135619
CD1        -7.7324669092      -10.0488542167        0.5712111851